 <VTKFile type="UnstructuredGrid" version="0.1"  byte_order="LittleEndian">
 <UnstructuredGrid>
 <Piece NumberOfPoints="1616" NumberOfCells="2912">
 <PointData>
 <DataArray type="Float64" Name="u" format="ascii">
   1.0000000000000000     
   4.4816890703380645     
   7.3890560989306504     
   1.6487212707001282     
   1.4549914146182013     
   1.8682459574322223     
   2.1170000166126752     
   2.2535347872132090     
   2.7182818284590455     
   2.5535894580629268     
   4.4816890703380645     
   4.7707331819676027     
   3.4903429574618414     
   3.7154507379411035     
   3.2788737679386735     
   4.7707331819676027     
   5.4059489251411659     
   3.7154507379411039     
   3.6237159323669421     
   2.4905411096998309     
   2.5535894580629268     
   3.7154507379411044     
   1.0253151205243156     
   1.0512710963757901     
   1.0778841508842707     
   1.1051709180751617     
   1.1331484530662259     
   1.1618342427275639     
   1.1912462166115145     
   1.2214027581591678     
   1.2523227161906674     
   1.2840254166863454     
   1.3165306748660635     
   1.3498588075742850     
   1.3840306459788667     
   1.4190675485911983     
   1.4549914146159608     
   1.4918246976388398     
   1.5295904196607510     
   1.5683121854873350     
   1.6080141974827340     
   1.6487212706968548     
   1.6904588483755849     
   1.7332530178636454     
   1.7771305269100355     
   1.8221188003862425     
   1.8682459574276815     
   1.9155408290090692     
   1.9640329759647233     
   2.0137527074650436     
   2.0647310999607322     
   2.1170000166066321     
   2.1705921271774078     
   2.2255409284864940     
   2.2818807653233981     
   2.3396468519201603     
   2.3988752939613494     
   2.4596031111512908     
   2.5218682603525884     
   2.5857096593103939     
   2.6511672109772699     
   2.7182818284538341     
   2.7870954605607747     
   2.8576511180582331     
   2.9299929005289265     
   3.0041660239418255     
   3.0802168489136021     
   3.1581929096855288     
   3.2381429438339251     
   3.3201169227327285     
   3.4041660827872295     
   3.4903429574584961     
   3.5787014100984926     
   3.6692966676164276     
   3.7621853549973849     
   3.8574255306947567     
   3.9550767229186778     
   4.0551999668431185     
   4.1578578427548116     
   4.2631145151680014     
   4.3710357729293374     
   4.5951435693064582     
   4.7114701825903049     
   4.8307416181095633     
   4.9530324243940198     
   5.0784190371785884     
   5.2069798271779391     
   5.3387951490708305     
   5.4739473917243933     
   5.6125210296898711     
   5.7546026760019737     
   5.9002811363155194     
   6.0496474644097589     
   6.2027950191020071     
   6.3598195225993202     
   6.5208191203279657     
   6.6858944422775073     
   6.8551486658978229     
   7.0286875805883664     
   7.2066196538199945     
   7.2066196538226297     
   7.0286875805935098     
   6.8551486659053475     
   6.6858944422865303     
   6.5208191203368777     
   6.3598195226079772     
   6.2027950191104262     
   6.0496474644190634     
   5.9002811363267531     
   5.7546026760148363     
   5.6125210297019681     
   5.4739473917354093     
   5.3387951490808083     
   5.2069798271869265     
   5.0784190371866282     
   4.9530324244011510     
   4.8307416181158276     
   4.7114701825958223     
   4.5951435693113210     
   4.4816890703423979     
   4.3710357729344240     
   4.2631145151738572     
   4.1578578427614001     
   4.0551999668504006     
   3.9550767229266155     
   3.8574255307033072     
   3.7621853550065190     
   3.6692966676261118     
   3.5787014101086876     
   3.4903429574691001     
   3.4041660827977331     
   3.3201169227430585     
   3.2381429438440827     
   3.1581929096955186     
   3.0802168489234241     
   3.0041660239514822     
   2.9299929005384211     
   2.8576511180675670     
   2.7870954605699501     
   2.7182818284628527     
   2.6511672109861344     
   2.5857096593191056     
   2.5218682603611504     
   2.4596031111597059     
   2.3988752939696179     
   2.3396468519282845     
   2.2818807653313815     
   2.2255409284943384     
   2.1705921271851145     
   2.1170000166141572     
   2.0647310999677884     
   2.0137527074716051     
   1.9640329759708097     
   1.9155408290147007     
   1.8682459574328769     
   1.8221188003910194     
   1.7771305269144118     
   1.7332530178676380     
   1.6904588483792098     
   1.6080141974856155     
   1.5683121854898421     
   1.5295904196631136     
   1.4918246976412701     
   1.4549914146184535     
   1.4190675485937496     
   1.3840306459814711     
   1.3498588075769391     
   1.3165306748687631     
   1.2840254166890634     
   1.2523227161930364     
   1.2214027581611862     
   1.1912462166132258     
   1.1618342427290085     
   1.1331484530674156     
   1.1051709180761076     
   1.0778841508849679     
   1.0512710963762426     
   1.0253151205245354     
   1.4233532759747560     
   1.4002903799874398     
   1.3862746195367184     
   1.3815738283960355     
   1.3862746195364586     
   1.4002903799869066     
   1.4233532759739786     
   1.4549914146174494     
   1.4944946608473570     
   1.5408750779555491     
   1.5928304288573760     
   1.6487212706996939     
   1.7065732668150893     
   1.7641156426934461     
   1.8188635260273727     
   1.9097731212213831     
   1.9412272392268883     
   1.9608537804489532     
   1.9675255658359474     
   1.9608537804493320     
   1.9412272392276348     
   1.9097731212224558     
   1.8682459574331844     
   1.8188635260281132     
   1.7641156426942672     
   1.7065732668160467     
   1.6487212707006151     
   1.5928304288582260     
   1.5408750779562548     
   1.4944946608479899     
   2.0886234879043073     
   2.0887805960872177     
   2.1054904988440715     
   2.1324628266587879     
   2.1668935563415173     
   2.2074575037796280     
   2.3049033570773454     
   2.3616087847429439     
   2.4239045902755065     
   2.4921901879343462     
   2.5667406724543822     
   2.6460635579161629     
   2.7552130431032449     
   2.7550058090282201     
   2.7331411275258701     
   2.6985711563479873     
   2.6556923662284126     
   2.6068917141791568     
   2.4966785085959793     
   2.4367298737974994     
   2.3741044507662177     
   2.3090543827136538     
   2.2419883464514627     
   2.1747787043095808     
   4.4389590792483906     
   4.4240511503881894     
   4.4389590792473328     
   4.4816890703372296     
   4.5464086875857745     
   4.6239531527817697     
   4.7028202320447914     
   4.8166568732468660     
   4.8328877836883208     
   4.8166568732480153     
   4.7707331819684917     
   4.7028202320449575     
   4.6239531527823914     
   4.5464086875859353     
   3.4570648069406054     
   3.4454545002702717     
   3.4570648069398047     
   3.4903429574613312     
   3.5407466460546768     
   3.6011383362722702     
   3.6625600793607207     
   3.7512161446709169     
   3.7638567904326905     
   3.7512161446716674     
   3.7154507379415094     
   3.6625600793602668     
   3.6011383362718887     
   3.5407466460542540     
   5.2724755706129924     
   5.1422976849498969     
   5.0153339027356987     
   4.8915048674734898     
   4.7707331819852614     
   4.6529433600361356     
   4.5380617791530176     
   4.4260166346048688     
   4.3167378945292150     
   4.2101572561595422     
   4.1062081031273703     
   4.0048254638282179     
   3.9059459708122350     
   3.8095078211774815     
   3.6104223366341235     
   3.4903429574630591     
   3.3742573097602828     
   3.2788737679397153     
   3.2166479714948042     
   3.1950784846123410     
   3.2166479714942051     
   3.3618788525559413     
   3.4469852208943714     
   3.5342460672046210     
   3.6237159323562120     
   3.7154507379273527     
   3.8095078211577413     
   3.9059459707862132     
   4.0048254637985732     
   4.1062081030969759     
   4.2101572561283787     
   4.3167378944972601     
   4.4260166345721084     
   4.5380617791227866     
   4.6529433600120269     
   4.9095154164107297     
   5.0784190371784526     
   5.2531335029458806     
   5.4059489251399153     
   5.5105265725508294     
   5.5477272958483406     
   5.5105265725502717     
   3.5342460672135387     
   3.4469852209005594     
   3.3618788525600034     
   3.2788737679400803     
   3.1979180861615220     
   3.1189612072878861     
   3.0419537806996120     
   2.9668476742482759     
   2.8935959441724366     
   2.8221528057562497     
   2.7524736047125327     
   2.6845147892723835     
   2.6182338829639047     
   2.5535894580630258     
   2.6182338829634588     
   2.6845147892715739     
   2.7524736047113407     
   2.8221528057546568     
   2.8935959441704231     
   2.9668476742458214     
   3.0419537806966948     
   3.1189612072847739     
   3.1979180861585013     
   3.2788737679371573     
   3.3618788525571865     
   3.4469852208985183     
   3.5342460672118152     
   3.6237159323666073     
   3.2139824257708325     
   4.3201155478869069     
   5.4040384628034772     
   4.0253780917895607     
   1.8347401925346936     
   2.3565514428203844     
   2.3752297926299057     
   3.1773516974218743     
   2.6643415486657238     
   1.9739394894120770     
   2.9187896524264096     
   2.1553790651782943     
   6.2004515604664254     
   4.6051724386283395     
   1.2381141523283397     
   1.6791315180667938     
   2.8976101971392869     
   4.0353072689452514     
   1.6313666744449724     
   2.2739207707229743     
   3.2401133852236668     
   4.7919898921318431     
   5.2702112959867762     
   3.5577346689646303     
   1.9444923091671111     
   2.1592825320628810     
   3.1091817274543985     
   2.6097461827970263     
   1.2887248838814473     
   1.5308202515599583     
   1.2906127087749877     
   1.8418882851415541     
   5.9784126042691632     
   4.1803257594223844     
   3.9981116119615172     
   4.9684654283442029     
   3.4239441821849010     
   4.2570461889453393     
   1.4860816617237891     
   2.1236162920311208     
   1.9858836064734631     
   2.4284169449820143     
   1.8003887756805654     
   2.5956657082300478     
   3.4463899635653950     
   2.3868200247976801     
   1.4161179419102325     
   1.3599171634131320     
   1.9909815491812481     
   2.9289159135227618     
   2.3210339416650925     
   2.9895621971514768     
   3.7064126856184307     
   2.0391851800773986     
   3.1711958789393102     
   2.1754480385229273     
   5.0535707829368812     
   3.3656808585570483     
   1.6865733544722672     
   2.4364132507150416     
   2.7145760566850980     
   2.1299620413263072     
   1.9810372882922831     
   2.8811897186590247     
   3.3038672787667260     
   4.5191552540060247     
   1.7787726443235552     
   2.1772213836697527     
   4.9326038630558537     
   6.0956575945558988     
   3.0718394668871856     
   4.5772737075365830     
   5.1975365377503966     
   5.6135542184956737     
   3.8003903166415727     
   3.7537437287383510     
   2.9548383543715300     
   2.7860557925370841     
   3.1576562655743112     
   3.9872775235135895     
   5.7384308185982160     
   4.4684162549948967     
   6.6918837701708203     
   4.5429473598710501     
   4.3301015206739493     
   2.9257679259685427     
   1.1326788534328842     
   1.6707191874759231     
   1.3290202960152016     
   2.9820509149674814     
   2.4830407628896989     
   3.3252913058741904     
   2.5362211927035103     
   1.8768550341721528     
   2.7419748728557476     
   2.5193811030477224     
   2.0871215740566562     
   6.3237060869167587     
   4.2485507437229941     
   1.3188081751806615     
   1.6376285089360068     
   1.5651526729865648     
   1.2035382526942220     
   1.2045402004699999     
   1.7897740638692188     
   2.6774655697878131     
   3.9936114978672492     
   5.3861763283772506     
   4.3143776634796129     
   2.2360485115050941     
   2.7716137649627872     
   2.0051501668586162     
   2.2738170785307772     
   3.3335918622936274     
   2.2358724462514719     
   3.0290679833816956     
   2.0306073256963693     
   3.3261162473207442     
   4.0697835998917213     
   5.0591499595169624     
   3.5811114895863971     
   3.3482130264412744     
   4.7494516430795244     
   6.4832520396633537     
   4.8002718033336231     
   1.5120544991413212     
   2.2698458090071418     
   5.8563902127048122     
   3.8936869142710471     
   2.1209994511168921     
   1.5875859588197814     
   1.9077217675229245     
   2.5477635301750183     
   2.8157865636250174     
   3.7846046092726828     
   3.5586406493574416     
   4.2770935817057261     
   3.9310523502690931     
   4.7441786606865666     
   5.7979053665946712     
   4.7346795738613618     
   1.3927626907449879     
   2.0992544318111079     
   3.4116131595628700     
   4.4478571884732601     
   3.0339373738074147     
   3.4761777655135786     
   1.3251135247643226     
   1.7416039440669031     
   4.9897904885308098     
   3.8121846372609682     
   1.7351901757240706     
   2.3065422817613190     
   5.2153109731089673     
   5.9330282773334302     
   1.5713487231201082     
   2.3874565559225172     
   1.9169462596594429     
   2.3080315793308843     
   2.9427061385603341     
   2.6410604792227113     
   1.4347258225718400     
   1.9472390059665832     
   1.2845299647293533     
   2.0355982739981866     
   2.1508156672507637     
   2.0339818394799498     
   1.9228937539544713     
   4.1949172086226181     
   2.7708541490952183     
   1.4941256058574184     
   1.8665530873556526     
   1.3523785098803942     
   2.0016777930865448     
   1.4422681378124762     
   1.3585883979385331     
   2.7475621463297606     
   3.0410020654013250     
   4.1857677735756438     
   3.1178142513768909     
   4.9560009711402175     
   3.4732372724621143     
   1.6830884955973746     
   2.1202161685743977     
   3.0826974113572265     
   2.2771424182983164     
   3.6145491302899546     
   2.3715220848434071     
   2.5729731562306841     
   1.6873658004635510     
   2.0952432267121508     
   1.8395560690930193     
   5.1273923472978611     
   4.1931934863308413     
   2.7699182303665077     
   2.0379813950381380     
   5.6514781910411536     
   4.1795467210193307     
   3.1850209534007550     
   2.4989372640520751     
   3.3843841191764339     
   3.4833160752477745     
   4.5997513169388045     
   4.3858394864729382     
   2.6492795226705299     
   1.3999415904701142     
   3.2466320675162681     
   5.0103836934525541     
   4.8503282757903241     
   3.6865118108202668     
   3.8520869446964050     
   1.2594593054223728     
   6.0286385685818491     
   4.4033596364873970     
   3.4214681199673116     
   4.8425217231422693     
   5.2702634306167759     
   3.3947275283836884     
   1.7812533732404592     
   2.4854554896926380     
   3.2206677138200952     
   4.9895026335763051     
   6.1488057379614478     
   4.0030551332532553     
   1.4873013668462947     
   1.2252864232332148     
   1.8751580778472836     
   3.0838502548821998     
   4.7687508803592200     
   2.0467477841194248     
   2.3525963789401740     
   3.1224620219181474     
   3.7782075198773191     
   1.2640004829522984     
   1.7575947802923455     
   1.5863116820966596     
   1.1419470508234635     
   1.7542953288118712     
   1.1420265656564013     
   6.6275153661061177     
   4.3133035456179458     
   3.3078178526659978     
   2.4243891702384990     
   1.7524514817046188     
   2.6874947177376125     
   5.5093432513802121     
   3.5641770321841828     
   4.9332063154494632     
   3.3179409551950987     
   2.9312073247204227     
   3.4666713994499445     
   2.4913967354818363     
   1.3403101907044521     
   2.4058425607560223     
   2.8539972119836987     
   3.0730903549774249     
   4.3904955268178973     
   2.6412022846072589     
   2.1928861842181711     
   5.1568353410159586     
   3.5006766629033232     
   3.2002596196485622     
   4.6305280951727132     
   2.9995540872913877     
   3.9000173801921627     
   1.2594298318579555     
   1.6012582312954642     
   1.5095189754392295     
   2.0384656694748959     
   3.1189172434127652     
   3.2782576626365554     
   2.2068482372817733     
   1.4299204431059069     
   1.8842904531071403     
   2.6547371270416216     
   1.9943795948451610     
   2.5484767489218347     
   1.8544955246595070     
   2.8833632733950694     
   5.3700437259765348     
   3.7128590010389573     
   5.4628824080237264     
   5.7019984925566796     
   2.9339397484841059     
   4.5164131056948165     
   2.3188170827486596     
   2.7821426234319189     
   2.0533429421598690     
   3.1783642041500602     
   3.0439103219004044     
   2.3893816178580876     
   3.4819346381182275     
   2.2618509041643087     
   3.9213070585667662     
   2.5445733632740319     
   1.9080877094372726     
   2.4310568902147311     
   2.8389311558944179     
   1.3452080577975480     
   1.5752397221712890     
   3.3159910905830348     
   4.3427402129058743     
   2.1427145051932315     
   3.3000907925107712     
   1.9442290302508136     
   2.9927833936535584     
   5.4238939050665964     
   4.4840946239502868     
   2.1368751118309204     
   2.5409172196729202     
   3.2467354778156010     
   2.2680751069858385     
   5.6678106555333239     
   3.9458781692051432     
   1.9381341246894501     
   2.7641710387140206     
   1.3236677566935655     
   2.0429375035383948     
   1.2127238189867098     
   6.9682852352823641     
   4.5120159738793131     
   3.9061528229958089     
   4.5918805309287345     
   3.0555677874870795     
   2.1227406634266575     
   3.1959838469497095     
   4.4615395885144959     
   1.4070442280379483     
   1.9147484094415799     
   2.9088539166774940     
   3.5385501443278300     
   1.8622628722278276     
   2.2141579759148957     
   2.4500582405354914     
   3.7707630645181576     
   4.6288242862504863     
   3.2898192840023674     
   5.2194686113406714     
   3.7103926374112493     
   1.0812961143258917     
   1.6610831935250718     
   2.6474485413260038     
   2.0537661964648728     
   2.9344475926339610     
   2.2319767388857441     
   4.9831318041288801     
   6.3670479836772946     
   2.0476402900186645     
   2.8648879955241675     
   5.2042130527554216     
   3.9645094274954613     
   3.2374650434549270     
   3.8956621933226274     
   5.0165888990793084     
   5.7845299726994766     
   2.8079859610892681     
   2.1563120855104314     
   2.8943789504433250     
   2.5405309763783999     
   5.4119871375985502     
   3.8772075868782139     
   1.6254519560274663     
   2.5184302412161590     
   2.6889660095726526     
   3.8188018401029060     
   5.6091348326848847     
   4.6810948789028073     
   6.1221803253435683     
   4.7740897210380755     
   6.4315435695758456     
   4.4967763892019175     
   3.6432868310225954     
   4.3061010257456198     
   1.6668367203558467     
   2.3561282884042209     
   1.4692585113518277     
   2.0917123294904090     
   6.7209202791307163     
   4.7111944826357552     
   1.8021481856547386     
   2.2923388681561638     
   5.9942724558398028     
   4.5845248621226933     
   3.1852385335016433     
   4.1562129471304008     
   1.3744235533860671     
   3.4235831569163842     
   4.0876755064717374     
   1.1762409283141226     
   1.6522928924608387     
   1.5717628533762091     
   2.2090062887378719     
   2.0818571586450507     
   1.7382775422877033     
   2.8748306296243484     
   2.4030387045936346     
   2.0801761055497621     
   5.8141375744909656     
   4.3497290839865812     
   1.9541472879918602     
   1.7344110595407849     
   1.1907946341276971     
   2.7198571378610956     
   3.1074488974503591     
   3.5917180315065971     
   1.9763935535488364     
   2.0865631759657379     
   1.7738698170746563     
   5.7735377690621066     
   3.7411949100787592     
   1.3586004981137838     
   4.3641154465081895     
   2.7996160185586985     
   5.1803018986707947     
   6.1614712036910477     
   2.8343735959222238     
   1.6853133564912226     
   2.2156965711337717     
   1.6912909903698985     
   1.2786337979850111     
   3.0658739604558614     
   2.7875247234132456     
   3.9608776937684991     
   2.3484681909800411     
   1.9649701201289351     
   4.1496390149069207     
   2.6498648114961192     
   4.0458464236466423     
   6.3313427685959240     
   2.9473899594101787     
   4.1881830924702319     
   3.3007084735749155     
   2.3155283583630504     
   2.8207922083704533     
   3.6041589971623393     
   1.7424707048499006     
   2.4057142738804993     
   1.8315724611747801     
   2.4880040352356101     
   3.3567537283521629     
   2.6062577146503498     
   3.0165904976898172     
   2.2221282942715335     
   3.3019066679100351     
   5.1652723724380971     
   3.0199166389543697     
   2.5606202560680127     
   3.0144151359898426     
   1.2725886682904863     
   5.7924934453208126     
   4.0738220678681296     
   2.9850540253078330     
   4.6805948879285273     
   2.7190297580677765     
   1.3442809112312004     
   1.6742502551240332     
   3.5025512496506503     
   4.1694912268542330     
   1.0999053858505476     
   1.6065058183312366     
   1.1007123471972158     
   1.7214818853071523     
   1.3114907880503812     
   6.8255991386507038     
   4.3811553084754946     
   1.5180674084908072     
   2.3530922195665274     
   4.4756218438566790     
   3.8067149368082061     
   4.9444003164609871     
   4.1229478742081183     
   5.3224671747449523     
   4.1628222273450097     
   3.2181301253346701     
   2.5721856591947443     
   2.0475381540712889     
   2.2093486224133838     
   5.1498667281114887     
   4.3211834811435859     
   6.4245471611342495     
   4.6436492683552597     
   2.6488029966418605     
   2.2647929801199607     
   1.7626174799327166     
   2.7985378100590781     
   3.1627075126035527     
   4.8685952087037947     
   1.5294025386696948     
   1.1587637616290127     
   1.8116788281161464     
   1.1568467635563253     
   3.0049494053596688     
   4.0737299284309536     
   1.3716167161038924     
   3.3242483558726215     
   3.0196607611704271     
   3.3431869916470465     
   4.2103279836339347     
   5.8872595564073897     
   5.3800319098617209     
   3.0900263127535346     
   2.4623889245014965     
   3.1655370137058920     
   6.1612356166606537     
   4.1562773137345603     
   2.0126734469520113     
   1.8466680878047361     
   1.4463870388915938     
   2.2742022884105078     
   1.3328805935310386     
   1.4540383173770266     
   1.9265310344154434     
   4.9437234425752274     
   3.5899432119183818     
   6.2472971938280066     
   4.4200634432305712     
   2.1720352604562327     
   1.3797754190024953     
   1.9867227405524617     
   2.2038943724850992     
   3.4073846307849438     
   4.7087758786836984     
   5.3745125421632647     
   3.4915689909522527     
   1.6237621262996040     
   2.0595291008858458     
   2.2949855597521807     
   3.6017169446026736     
   1.6836205550706722     
   2.6551587886873684     
   3.5686886036346310     
   4.3676102521905396     
   2.0373289043927238     
   2.4852742551373956     
   2.0161135825359757     
   1.2775474355312348     
   6.0596546569957717     
   3.8585912829157043     
   1.5715873387153037     
   2.3090991992303240     
   1.4371940209688703     
   2.0739318489208949     
   5.5913079515435049     
   4.3817724671975791     
   2.9570987428669242     
   2.0936503761997036     
   4.1690159925771200     
   6.5295310734667691     
   4.3744512350735310     
   3.7155255832481662     
   3.1181903754897640     
   3.3759753232017826     
   2.1536707502307149     
   3.3973375832120198     
   1.2417460778071407     
   1.3077241827864636     
   1.5813807912630959     
   3.8344325737730776     
   4.6982879390347243     
   1.6231984569100044     
   2.1899017479976881     
   1.9572851176865425     
   3.0790563236262609     
   1.5607373292784006     
   2.4579378315576799     
   2.8305578848177566     
   2.4751778992897324     
   1.2463248848683601     
   1.5427399719190780     
   1.8163744018199177     
   1.4271294069527749     
   1.9324208411121646     
   1.2352959163686048     
   2.3719320304842095     
   3.7460565857084109     
   4.0861318279910046     
   2.8065116026336581     
   5.6673762745236305     
   3.6179483836982800     
   2.9013391968973017     
   3.8886895020725389     
   2.9535656750009252     
   2.0068293770925143     
   1.5582072782926377     
   2.0314557778226909     
   1.6343201394130986     
   1.2180513841435927     
   1.3366408761250774     
   2.1056665488804924     
   1.4013088685709194     
   2.0334879880646146     
   2.1214420094058921     
   2.4590268132409845     
   3.3843624393162095     
   2.4595338221734604     
   5.2779856164796435     
   5.7050034211475769     
   2.7337447468736245     
   3.2070827229332624     
   5.1356714826087071     
   4.0711773503371429     
   3.4057637545223987     
   4.9522346078114969     
   4.0415722577725504     
   2.5770576816575752     
   4.9237142647573080     
   6.5379457170244830     
   2.7803594992612690     
   2.0996619147145288     
   3.3872850753981671     
   4.3669552967339706     
   6.2596897285195947     
   4.8681560008760218     
   3.4533098633825334     
   4.4882659570260302     
   2.0364011007380598     
   1.7821018314312815     
   2.9207026685795423     
   3.4094611271747715     
   3.5582498855888360     
   2.4485346657096958     
   2.5412566806108385     
   1.7498768215572298     
   1.8156209368166947     
   2.6674652724951664     
   1.4758949338439102     
   2.2037107110670076     
   4.8894021612043499     
   3.7448056052000620     
   2.1493420257124569     
   2.0767130804839335     
   1.4036248289078488     
   1.6177570757250077     
   1.3570206213542637     
   5.9755151792373065     
   4.0282362719086358     
   2.3081486967120814     
   3.4104060748229252     
   1.3629031887021570     
   1.3203204962524906     
   2.0529959776279201     
   2.2780465677030741     
   1.7979978535691388     
   2.7266666960192723     
   3.6790243469968735     
   5.6398997156136961     
   4.8064737676521192     
   2.1009419776138767     
   1.9021463291000931     
   1.4815790019037141     
   1.8894454651831751     
   1.2677139561495088     
   1.1817525600866783     
   1.4767557119141805     
   1.8703182039253368     
   1.9495107487409646     
   2.4926549172284216     
   3.3761783134252630     
   3.9547710668664440     
   1.5357579974938962     
   2.1156034284675118     
   5.8924683953964694     
   4.8712322875221696     
   3.4573616272064394     
   2.5516997119142291     
   4.8331128875726472     
   4.0227668817784616     
   1.9433321497418576     
   2.6010786422084280     
   1.9581588058486339     
   2.2741931320949131     
   5.0544191363965494     
   3.9228775920757055     
   2.8947168117300053     
   3.7219753131325635     
   2.9967098055951911     
   2.2777907819585930     
   2.9548369573141668     
   1.8665745318971914     
   1.3282262874456152     
   1.5344525975058780     
   3.2659866302099325     
   2.0627885666500494     
   2.6672442561664966     
   1.3172673490264473     
   1.9856544720787399     
   1.6223137825075611     
   2.4251254490390335     
   2.8312177919013459     
   4.4865076271786846     
   1.8536500225908263     
   2.5542254255537360     
   3.1579618341453997     
   6.9074548605318347     
   4.6566414878486686     
   2.7297937731372759     
   2.1860804060122407     
   2.3878915097251312     
   2.9473423796981337     
   2.1477874753250497     
   1.4343720466143708     
   2.8396834057452485     
   2.2792296585207006     
   2.6204262678022889     
   2.1000361916725869     
   3.1088062625246216     
   2.5370560838616907     
   2.1998335745445439     
   3.2453663115521456     
   2.8555333677003221     
   2.6214813062638402     
   1.7546580873701176     
   2.2344809219504542     
   3.1977258107409714     
   3.7582059379798887     
   1.8848793494949085     
   2.3653106039898359     
   5.2320678696687510     
   4.4259169520689570     
   2.3728571107072076     
   2.7620467541486753     
   1.8450803175926029     
   1.5103777357285768     
   1.3905298206279255     
   2.0195705362028478     
   1.2148685976362199     
   3.0077441530712909     
   3.6097289280104374     
   3.2640922393765712     
   4.2005982690738799     
   2.8630162198056954     
   4.2469206301489679     
   3.0913973305023172     
   2.1961401936155394     
   1.9586739982093073     
   1.8856787606349075     
   5.3104206179212685     
   6.0512126170669482     
   3.0184960624101578     
   1.9517346994119107     
   1.4596009573120741     
   3.1166047797437133     
   4.2701537515361778     
   1.3563724925848164     
   1.7144882589200434     
   2.6924722203369473     
   4.2703770063746820     
   1.7746420390139779     
   2.3546131461374085     
   1.8628982269629080     
   3.1035363896150696     
   2.3507485246741333     
   3.1720450470686741     
   4.7366408319567963     
   5.0585207784355548     
   5.9770943482208700     
   1.7393824767703141     
   2.6145245886908950     
   1.3869270672225733     
   2.9093830482714580     
   3.0837419754654478     
   3.8744025517106686     
   2.6448278434670849     
   3.0105701832524767     
   3.0175370361213734     
   4.2957953012650689     
   5.5880774682165688     
   4.0677302963167206     
   2.6998667991239995     
   1.9271628571676040     
   5.3874720663309557     
   3.6110770645383439     
   5.7057815311513442     