 <VTKFile type="UnstructuredGrid" version="0.1"  byte_order="LittleEndian">
 <UnstructuredGrid>
 <Piece NumberOfPoints="1616" NumberOfCells="2912">
 <PointData>
 <DataArray type="Float64" Name="u" format="ascii">
   0.0000000000000000     
   0.0000000000000000     
   576.00000000000000     
   0.0000000000000000     
   0.0000000000000000     
   0.0000000000000000     
   0.0000000000000000     
   3.7500000000000000     
   0.0000000000000000     
  -6.2500000000000000     
   81.000000000000000     
   99.750000000000000     
  -26.999999999999996     
  -33.250000000000000     
  -12.000000000000000     
  -41.250000000000000     
   68.750000000000000     
   20.000000000000000     
   28.559999999999995     
  -4.0799999999999992     
  -5.2500000000000000     
   36.750000000000000     
   0.0000000000000000     
   0.0000000000000000     
   0.0000000000000000     
   0.0000000000000000     
   0.0000000000000000     
   0.0000000000000000     
   0.0000000000000000     
   0.0000000000000000     
   0.0000000000000000     
   0.0000000000000000     
   0.0000000000000000     
   0.0000000000000000     
   0.0000000000000000     
   0.0000000000000000     
   0.0000000000000000     
   0.0000000000000000     
   0.0000000000000000     
   0.0000000000000000     
   0.0000000000000000     
   0.0000000000000000     
   0.0000000000000000     
   0.0000000000000000     
   0.0000000000000000     
   0.0000000000000000     
   0.0000000000000000     
   0.0000000000000000     
   0.0000000000000000     
   0.0000000000000000     
   0.0000000000000000     
   0.0000000000000000     
   0.0000000000000000     
   0.0000000000000000     
   0.0000000000000000     
   0.0000000000000000     
   0.0000000000000000     
   0.0000000000000000     
   0.0000000000000000     
   0.0000000000000000     
   0.0000000000000000     
   0.0000000000000000     
   0.0000000000000000     
   0.0000000000000000     
   0.0000000000000000     
   0.0000000000000000     
   0.0000000000000000     
   0.0000000000000000     
   0.0000000000000000     
   0.0000000000000000     
   0.0000000000000000     
   0.0000000000000000     
   0.0000000000000000     
   0.0000000000000000     
   0.0000000000000000     
   0.0000000000000000     
   0.0000000000000000     
   0.0000000000000000     
   0.0000000000000000     
   0.0000000000000000     
   0.0000000000000000     
  -25.919999999953760     
  -46.079999999935964     
  -60.479999999931714     
  -69.119999999949073     
  -72.000000000000000     
  -69.120000000084502     
  -60.480000000202594     
  -46.080000000354232     
  -25.920000000539495     
  -7.5210238037274431E-010
   31.679999999180922     
   69.119999999150622     
   112.31999999915078     
   161.27999999918094     
   215.99999999924168     
   276.47999999933251     
   342.71999999945388     
   414.71999999960582     
   492.47999999978788     
   547.52000000033797     
   519.68000000066036     
   492.48000000096766     
   465.92000000113995     
   440.00000000106235     
   414.72000000096472     
   390.08000000087196     
   366.08000000095785     
   342.72000000120852     
   320.00000000141796     
   297.92000000136647     
   276.48000000126711     
   255.68000000117109     
   235.52000000107873     
   216.00000000099010     
   197.12000000090489     
   178.88000000082332     
   161.28000000074547     
   144.32000000067106     
   128.00000000061874     
   112.32000000065571     
   97.280000000696035     
   82.880000000730533     
   69.120000000759092     
   56.000000000781711     
   43.520000000798561     
   31.680000000809471     
   20.480000000814499     
   9.9200000008135980     
   7.9859319157770616E-010
  -9.2799999992720430     
  -17.919999999347361     
  -25.919999999419158     
  -33.279999999487245     
  -39.999999999551790     
  -46.079999999612760     
  -51.519999999670134     
  -56.319999999723898     
  -60.479999999774108     
  -63.999999999820716     
  -66.879999999863713     
  -69.119999999903200     
  -70.719999999939049     
  -71.679999999971315     
  -72.000000000000000     
  -71.680000000025089     
  -70.720000000046610     
  -69.120000000064550     
  -66.880000000078894     
  -64.000000000089642     
  -60.480000000096815     
  -56.320000000100414     
  -51.520000000100381     
  -46.080000000096760     
  -40.000000000089642     
  -33.280000000078871     
  -25.920000000064519     
  -17.920000000046638     
  -9.2800000000251135     
   0.0000000000000000     
   0.0000000000000000     
   0.0000000000000000     
   0.0000000000000000     
   0.0000000000000000     
   0.0000000000000000     
   0.0000000000000000     
   0.0000000000000000     
   0.0000000000000000     
   0.0000000000000000     
   0.0000000000000000     
   0.0000000000000000     
   0.0000000000000000     
   0.0000000000000000     
   0.0000000000000000     
   0.0000000000000000     
   0.0000000000000000     
   0.0000000000000000     
   0.0000000000000000     
   1.7875356264429136     
   3.2794650478355170     
   4.5305889508340362     
   5.5637084989716934     
   6.3933071395466472     
   7.0471152654156910     
   7.5689635874863468     
   7.9999999999917302     
   8.3490367619147658     
   8.5689794252945042     
   8.5524697561825640     
   8.1494949366166072     
   7.1995471465794871     
   5.5666960724490711     
   3.1689536878064919     
  -3.8540097910832243     
  -8.2010379230502082     
  -12.737862926612564     
  -17.063708498928779     
  -20.723516033181099     
  -23.282396639632569     
  -24.417510272335893     
  -24.000000000024713     
  -22.136115987891223     
  -19.147406550092430     
  -15.491642389806421     
  -11.649494936643940     
  -8.0157848623266919     
  -4.8314146982125781     
  -2.1739603935542759     
   2.3450493227878804     
   3.7028813747130354     
   4.3605248333595918     
   4.5770818883393058     
   4.4966927824779077     
   4.2030794238677860     
   3.1768171544996386     
   2.5182223472018830     
   1.8126072871230905     
   1.1121446329098519     
  0.49764287729289575     
   9.4960720352695926E-002
 -0.11166504272878137     
 -0.66177649307222286     
  -1.6156364225905384     
  -2.8036507084849966     
  -4.0629966574368517     
  -5.2524332319631473     
  -6.9492177134726987     
  -7.2551368488424464     
  -7.0796023883769079     
  -6.3346281895420073     
  -4.9241734630907734     
  -2.7575615671687914     
   71.515411397456148     
   64.806505521017186     
   61.490009333072358     
   62.003906249961574     
   66.583209038180726     
   75.077864461351737     
   86.681295122436907     
   111.94067527710854     
   120.76185385396354     
   124.35808699977250     
   122.12890625007569     
   114.84546991223982     
   104.24049491365342     
   92.355374169740699     
  -26.979501407686449     
  -27.012665017890825     
  -27.335329125159081     
  -28.183593749986304     
  -29.599506537914444     
  -31.293975607110205     
  -32.700897304232733     
  -32.700897304237770     
  -31.293975607122078     
  -29.599506537947274     
  -28.183593750010225     
  -27.335329125170819     
  -27.012665017891674     
  -26.979501407686342     
   64.800000000115432     
   60.950000000224975     
   57.200000000328721     
   53.550000000426429     
   50.000000000518192     
   46.550000000604037     
   43.200000000683971     
   39.950000000663259     
   36.800000000550718     
   33.750000000444118     
   30.800000000343456     
   27.950000000248711     
   25.200000000159889     
   22.550000000076981     
   16.061855459345150     
   10.475780108449820     
   4.8613033065691402     
   5.7194249336662246E-011
  -4.0123529938098450     
  -7.3284135848472047     
  -10.034405187616157     
  -13.529999999953818     
  -15.119999999904060     
  -16.769999999850768     
  -18.479999999793911     
  -20.249999999733511     
  -22.079999999669560     
  -23.969999999602052     
  -25.919999999589610     
  -27.929999999637598     
  -29.999999999689113     
  -32.129999999744143     
  -34.319999999802867     
  -36.569999999865033     
  -38.879999999930732     
  -41.278173066054521     
  -35.381529531810180     
  -21.665624660907952     
  -2.3439972185435518E-010
   26.249727519511726     
   50.576993094200233     
   66.073079272306146     
   23.337600000060597     
   18.550400000057568     
   14.198400000077427     
   10.281600000063493     
   6.8000000000508978     
   3.7536000000396874     
   1.1424000000298491     
  -1.0335999999786429     
  -2.7743999999857656     
  -4.0799999999915295     
  -4.9503999999959323     
  -5.3855999999989832     
  -5.3856000000006761     
  -4.9504000000010153     
  -6.3699999999968933     
  -6.9299999999979303     
  -6.9300000000031057     
  -6.3700000000124231     
  -5.2500000000258860     
  -3.5700000000434926     
  -1.3300000000652421     
   1.4699999999202726     
   4.8299999999192291     
   8.7499999999223412     
   13.229999999929602     
   18.269999999940964     
   23.869999999956509     
   30.029999999976173     
  -19.528824103024089     
   80.933026869970121     
   180.17791730882419     
  -42.733899713358333     
   8.9838632729857846     
  -29.415095159521403     
  0.57691532186412642     
  -3.2216048444805083     
  -29.505180749139118     
   6.9749558015669120     
  -19.007320380361438     
   4.3389267696136731     
   237.53296950810358     
  -58.700806123420200     
   3.9502388183101051     
  -17.295022862373607     
  -11.710109842205281     
   60.603775801938021     
   8.2838786376335776     
  -45.185285918802727     
  -17.939855666108823     
   148.63347665918911     
   218.31041953965936     
  -24.714022996154217     
   5.8434332673129497     
  -10.558433403137082     
   2.9015194095282171     
  -1.6268804645833956     
   5.3028925509063871     
  -6.5624561399671908     
   2.8446932722516611     
  -32.465086915917979     
   278.78570962514414     
  -42.370923370707303     
  -38.418770250781932     
   108.14973160444652     
  -22.889168507124687     
   59.119669891609632     
   7.2210041634038244     
  -45.278430466180325     
   7.8047948112879579     
  -19.997079166649886     
   6.4566699006786124     
  -46.293086158777669     
   9.3419710727985432     
  -1.5323863162472560     
  -1.2566614019474835     
   5.7157320327088721     
  -42.588291019198181     
  -8.6751434073998333     
   2.8599691306135004     
  -11.463464147401465     
   29.917753633072223     
 -0.70642930404091275     
  -15.773646486466415     
   1.8580436512520908     
   185.47823193315273     
  -19.852169890618722     
   7.0072293053477210     
  -50.976821311630381     
  -17.800076366803712     
   5.9608527834005134     
   4.4755921274708736     
  -32.756921883916021     
  -22.384386175905163     
   100.95762538581380     
   9.3676860290793726     
  -22.715946061036114     
  -63.879577965106485     
   157.11998443481258     
  -13.574923193497842     
   134.52113822164904     
   175.88526866586025     
   278.61364286919553     
  -36.129718323099141     
  -26.437501766532286     
   1.1263903572607756     
  -1.1375790825711576     
  -16.052918472231113     
   46.466506185444622     
   172.31813486111832     
  -55.050595806132094     
   361.85147122298355     
  -45.190419649720994     
   99.989868651553593     
  -11.052776627888779     
   1.7315013761333911     
  -14.434869712531743     
   1.0914345180790566     
  -1.9787278323036888     
  0.70168718782707595     
   9.2620929005157766     
  -2.8123437163861298     
   5.3460697290888168     
  -41.239233790269026     
  -15.369412727530971     
   6.9386985896653197     
   354.58065486547616     
  -36.784635542874739     
   5.7815621853014143     
  -13.423715964974365     
  -7.9191004643313301     
   3.1736052570752387     
   2.2925147777020878     
  -30.359149269408366     
  -6.6178686598105543     
   60.264545212286890     
   132.14275313957313     
  -50.344267051491393     
   4.4912089981549945     
  -12.081429245445371     
   6.2483613946214414     
  -12.360442030145444     
  -5.0487311036332878     
  0.40157828469304946     
  -28.990476747297024     
   2.9757232051369549     
  -18.796300821697791     
   45.933594651955843     
   172.58343343986681     
  -30.567329756845883     
  -23.441855026248856     
   131.89956239625596     
   258.56901204391664     
  -64.198134336841974     
   5.5363391220642466     
  -60.111802068117967     
   301.80903451838714     
  -28.037589767826386     
  -35.235622324733797     
   8.9188975581145744     
   7.8739876790714041     
  -32.022682809424786     
  -9.8964528625212882     
   39.274384526970060     
  -25.148498610709428     
   53.065281644185198     
  -33.805362394835250     
   82.640280462619089     
   137.69468986876424     
  -56.922162518027029     
   4.9478862571352433     
  -51.244004601521667     
  -25.009743407911845     
   82.638835218900653     
  -8.2552683929204740     
   14.964874316625133     
   4.4774806740457835     
  -21.493350739353115     
   137.86689640710796     
  -36.505682886562852     
   9.1075190675030182     
  -36.009711859938328     
  -56.271670110742875     
   86.718955475770713     
   4.9217509534391279     
  -65.761550616360068     
   8.1828710983438011     
  -19.815757520641977     
  0.64860798063522251     
 -0.55748009524834752     
  -2.3785991445234020     
  -43.982891665943463     
   4.0319475616106546     
   3.0477550534675180     
  -5.5678284672390177     
  -5.6738135219632433     
   3.4635852307885204     
   83.116625903298669     
  -7.4515329909536048     
  -4.1082929589022603     
  -30.657610005540160     
   6.7749400170817431     
  -36.897794906546466     
   7.5177292146270336     
   2.4309510451946084     
  -2.9246742804669528     
  -15.025696731667852     
   73.644810423614260     
   4.3044470837922573     
   158.48797992472089     
  -29.620186564941076     
   9.5140781512622539     
  -26.353789630697548     
  -10.469248559742770     
   2.2268352701208776     
   21.056131251396241     
  -1.8286963758198675     
  -59.109785172476343     
   4.4701768964672439     
  -13.490256551730075     
   7.5918433442631814     
   105.59919993414648     
  -42.899738815848586     
  -26.254008455586266     
   6.0063707328879197     
   204.14134242916458     
  -47.116160798021227     
   2.1703578195262541     
 -0.95661370024895376     
  -25.031266688790360     
  -25.710775635073762     
   105.71431812956770     
   69.718517577633008     
  -4.0006077429308489     
  0.50173117046991711     
   8.3443702803467570     
   162.59915054293867     
   114.55837550477247     
  -33.683947427313868     
  -35.691501674922819     
   1.3643459847536192     
   243.64237586972678     
  -52.284200513409566     
  -26.828655544874007     
   141.37819767190334     
   229.12232732054349     
  -14.673098245672055     
   7.7258029414172036     
  -42.634409400211219     
  -12.532421608213873     
   185.18484037488639     
   362.65245273871727     
  -24.731634697469580     
  -4.0229346223077407     
   3.0357760535808982     
  -41.210378973986586     
  -10.493778406659530     
   161.12287612406178     
   6.3104439988004373     
  -12.798787083473080     
  -13.083587347504579     
   30.516373975465459     
   3.7065952849501440     
  -24.755182020214253     
  -7.4790277798706857     
   1.7724508536528574     
  -24.666756425620331     
   1.4629798171073471     
   399.72529667822653     
  -29.144415201259871     
   3.6797050091769283     
  -1.0356981723037477     
   3.8912102990254742     
  -56.006616083158804     
   290.56244987434081     
  -17.335298454905022     
   166.27224134389772     
  -19.724739554875416     
 -0.25496675671333641     
   15.526962134481822     
  -3.2165571028586375     
  -2.1859277658173720E-002
   2.0767182753128588     
  -4.6441056552669062     
  -15.427868375963737     
   101.73783221152966     
  -11.934025852542545     
   5.3352658375660953     
   197.36227843455373     
  -24.862059850524439     
  -18.191058636609764     
   127.13565232298210     
  -13.182989936495096     
   44.499914194018935     
   4.7028016243810367     
  -10.990233927001299     
   8.3661740636528190     
  -34.634954584215315     
  -3.4985893821462044     
   4.3137579841301017     
  -59.843436479083920     
   3.9958393121382554     
   6.6621894478950612     
  -38.400469110956656     
   7.6840980364197282     
  -23.863570785454407     
   2.6779347512580443     
  -44.484743478897663     
   224.02393314622316     
  -30.340138153809921     
  -24.919332938993396     
   24.544487356610833     
  -8.7491286768114218     
   141.66869663922702     
   3.3357395426090717     
  -7.7816855668266589     
   1.4398605294355895     
  -25.792438182709176     
  -4.9209873702262819     
   1.4261989425888466     
   5.8193243702595980     
 -0.49141061998731955     
   53.441643616375210     
  -3.8547079858920545     
   8.4654303851603636     
  -26.724718838409100     
  -9.7360650767626983E-002
   6.9170303337834218     
  -8.7729368935359506     
  -21.997387166743870     
   76.512686196186309     
  0.76195146921331114     
  -12.976287465575103     
   2.5250435836160281     
  -36.029513095496284     
   116.99596291469314     
  -52.602303848011090     
   6.2686368891433286     
  -12.522497210095077     
  -7.0338711765530153     
  0.88706100435993707     
   249.99601311363514     
  -36.271949966712540     
   5.6870010025910620     
  -35.307972948792120     
   3.5999630437774384     
  -51.304311392304740     
   1.4830900492464640     
   441.71498945598495     
  -30.568146910009840     
  -30.523633250912212     
   66.523444010435512     
  -21.557312118687907     
   3.0362706719702426     
  -19.083615730016803     
   102.10853950488377     
   7.4351985272568673     
  -31.526214194239948     
  -9.7155267936938738     
   22.988780906946612     
   8.3969135347218167     
  -18.721478388830658     
  -2.7853287428917466     
   37.766983631514520     
   118.17176504694167     
  -21.704520127370600     
   191.73563112629731     
  -32.800664128388483     
  0.78786142464260500     
  -10.615770205716220     
  -21.963172119188624     
   6.8937426259859169     
  -13.852545623782722     
   3.7279037351792015     
  -68.841011423761003     
   200.30974720849420     
   5.0274397810617746     
  -26.905150001081839     
   152.33230431965589     
  -40.751274351537894     
  -15.453920815905599     
   34.928759294717203     
  -52.419006168326575     
   92.201748681476431     
  -17.716621151178067     
   5.1851264338933687     
  -1.0186451670570820     
  0.46795611637873957     
   206.59672534958023     
  -37.165689110841242     
   3.8455609440725063     
  -62.591499544131629     
  -7.5939030221754624     
   43.713164830707392     
   115.17218912890634     
  -52.989435302790334     
   189.53799063362973     
  -62.749285596497387     
   311.64530870472470     
  -49.860589550793371     
  -25.844611159206639     
   54.904002089784001     
   7.8130589655633722     
  -47.878667224140784     
  -2.2896158189624769     
 -0.74949974288262899     
   332.36938901636222     
  -55.889436995742230     
   9.2375414053800142     
  -28.415497803035620     
   200.33614281752477     
  -58.083837387413375     
  -18.022625823515057     
   62.609418103716855     
 -0.84824487666677151     
  -19.700041394128395     
   41.909101545486145     
   2.6887806078890613     
  -14.061321568250454     
   7.9935225355280295     
  -45.670261931521551     
  -19.109386899501803     
   9.8313577639600176     
  0.44884815210531420     
  -11.929381544918716     
   6.2939176330766440     
   207.88130716419445     
  -52.180329900270415     
 -0.45273598666034454     
  -23.022176558353518     
   2.6755791385473664     
 -0.42898027531502991     
  -10.024336757807738     
   18.914529998443438     
   3.1868230279964500     
  -5.4417872917586596     
  -22.515185919034231     
   323.64391955562388     
  -19.922631286740078     
   3.7218047769407163     
   108.28131991101813     
  -6.1201400057469053     
  -65.885122265555765     
   128.94422131359605     
  -2.3788838340070386     
   9.3803979858046542     
  -33.985672374209699     
  -18.060312234827336     
   4.6255687994744923     
   2.8238760668963896     
  -9.3947359898425979     
   55.268718239854117     
  -18.207549666403864     
   7.7282091308959897     
   79.303812235189653     
  -4.2390884688817225     
  -20.144151007053836     
   455.15606461478609     
  -12.656050400309047     
   77.531464864786173     
  -2.1156220935332462     
  0.14187300179995285     
  -9.2888417416498399     
   27.343294510488242     
   8.2449131657314130     
  -42.143811718147369     
   8.1232907571905386     
  -37.200994225784875     
   15.225962775565840     
  -4.4418122035022414     
  -14.525687949238769     
   3.1341265636855105     
  -12.221435480900839     
   213.14544139296544     
  0.31615978641639064     
 -0.35848384825134172     
   2.0049918133700877     
  0.46656800160525924     
   253.58683076714064     
  -40.656409482290016     
  -7.6606461280267917     
   164.96272854127224     
  -1.5338051090754679     
   5.5101324582531861     
  -15.720415998422284     
  -21.847116285932543     
   45.026535892194431     
   1.0297405040542440     
  -6.7371802688696354     
  0.91356007803435912     
  -18.856180895966563     
   2.0414344866319856     
   432.57638850163141     
  -25.873974657147556     
   3.9045723210855807     
  -71.581689198313271     
   54.761844220113822     
  -35.542693626407925     
   86.432136685910635     
  -37.886899217636270     
   143.21885103910066     
  -46.098301556757484     
   5.5587849384354273     
  -2.2915658133609691     
   4.1235579952608674     
  -7.6779168158113427     
   91.530140578047636     
  -44.681031108480504     
   277.79624740347373     
  -57.642640583754151     
  -9.1456474900921592     
   4.0482691363993633     
   2.0134191829237160     
  -53.701703617884775     
  -12.377756365890455     
   168.72133296590948     
  -4.4691622931942803     
   1.7428601961567145     
  -33.628063941628440     
   1.1844789263669109     
  -14.080384258965141     
   61.612145653917764     
  0.17748608353802614     
   8.2859637768978871     
  -5.5293776610090317     
  -21.113548559405061     
   59.258440484680328     
   58.261526279771623     
  -46.124703672971705     
  -1.3946517856599403     
  0.27367994036136123     
  -2.1481919159255264E-002
   337.02320668632211     
  -35.754462314353795     
  -9.2965486663585324     
   5.4655830979176105     
   3.0684259074276024     
  -67.341076451766071     
   5.6954328844490867     
  -2.7841214743822840     
  -38.270785448799764     
   150.96097355275646     
  -31.570217001198550     
   288.96056291419961     
  -49.682954279941058     
  -60.475373398979073     
   2.8726955920439265     
   5.5711818780558575     
  -10.285452042397733     
  -26.024176486698558     
   120.16344584139924     
   249.88002096268130     
  -17.416204462004156     
   9.1772669048877589     
  -26.425769087328490     
 -0.88454114119878924     
   16.812695384680627     
   2.6370862255442589     
  -70.908471904772284     
  -26.389997289263967     
   62.254020918916794     
   7.3637961420495808     
  -18.039395912080984     
  -52.170820468859851     
   2.3995150094369286     
   351.38211705699069     
  -17.053410304788585     
   6.4908091345181083     
  -56.866963637492404     
   6.6527995239553830     
  -44.557715840083389     
   159.06872269191393     
  -53.084938463965202     
  -23.895692522327334     
   4.0748662504169371     
  -21.252186458544632     
   415.90149022381922     
   53.727649989747960     
  -26.345267924977655     
  -5.7987113012417684     
   7.8205760340705943     
  0.19243575284739173     
  -5.7524563347646964     
   2.4881224222633085     
   5.9372395817854073     
  -9.5070621384496050     
  -33.176611509680576     
   85.838252185166013     
   8.9133441548117993     
  -38.168524173171804     
   1.5664221686939572     
  -34.448529047625684     
   2.9445543461116839     
  -69.471550330103994     
  -2.4785911640979212     
   1.2950644592222140     
   4.1938996502442567     
  -7.0767660025429917     
  -32.179201774365033     
  -1.8800115731745926     
  -45.956647348654791     
   2.4780874760858209     
  -1.4868158291233915     
   32.807514928601613     
   68.602344890046950     
  -9.3336075271609360     
   331.65277034078383     
  -15.071424262913602     
  -11.621671132521325     
   46.143491295537942     
  -30.902549184714367     
   3.7472485935490116     
   8.8730671749784502     
  -29.668844004238746     
  -13.199223250943872     
   3.6808332243774435     
   2.7061973297472819     
  -57.273125305391105     
   6.2571460960050036     
  -43.527361283949745     
   6.5554029291946261     
  -10.861118392313740     
   9.0379669554449755     
  -2.1064505223005781     
  -41.543473027585918     
   46.714998482456437     
  -4.2101508785979505     
   7.2141291648944357     
   124.50010497708658     
  -41.950332112451868     
  -24.677809572258614     
   162.80940565434926     
   66.714439754537068     
  -3.4611317415970375     
  -68.164613011046399     
   247.67579771559082     
  -21.408288066532208     
   5.7611067542303216     
  -23.704961589984894     
   74.366471619286386     
   199.31988108277071     
  -65.678079693283422     
  -26.306263176737360     
   84.667647004780406     
  -13.282436743651854     
   8.6477976928881972     
  -7.5586758268300125     
   14.879631770185833     
   20.134562849428651     
  -2.9464544648051141     
  -49.625799823969565     
   6.4747160885204691     
   5.5792743013583461     
  -46.853204620471445     
   5.6592051051235908     
  -55.279894901557505     
   129.14799451479337     
  -34.694776801832276     
  -3.8189771579729279     
   1.8615889215618506     
   1.3924494753622523     
  -12.187609009827336     
   6.4241591148276207     
   306.52932780435282     
  -33.148223940531778     
 -0.53052943499953853     
   3.2544370805542084     
   1.3592465736731603     
   3.5932075038338018     
   5.2192423580955367     
  -9.9999915715401340     
  -26.533309896204557     
  -8.1647766372850459     
   32.868041361707874     
   100.08598675433016     
  -50.945470375790904     
  -10.099136537227816     
   5.8535997508724549     
  -4.1202320602741169     
  -39.127206287522370     
   4.2460435883003962     
   1.6400230885640896     
  -2.6613493471115253     
  -49.018669284988448     
   8.1214383534091166     
  -25.752785951124991     
  -16.734287362308706     
   33.011815604702157     
   8.2548729564780210     
  -39.750767682422108     
   131.26048065920273     
  -58.859680279005005     
   17.563066600545021     
  -4.2549414053440957     
   83.617355778851106     
  -35.302509783455925     
   7.5381579844774764     
  -30.517764870217750     
   7.2024946012780777     
  -15.278290182534535     
   133.06377817527968     
  -38.829532184218259     
  -10.739593393563572     
   33.364852126038350     
  -11.099147935843055     
   2.8751930857096513     
  -42.937837390218533     
   1.7674125080639225     
   6.4255036720330549     
  -6.4826487963368393     
  -22.783956552580605     
  0.72662350150059229     
  -2.8118253533626412     
   4.4580553649317798     
  -45.633536096720825     
   5.6671444633262533     
  -59.033140116435817     
  -4.9282114497721841     
   130.81137176163000     
   7.6026220272497849     
  -38.032803666347256     
   5.1051347359762778     
   392.52562608936722     
  -46.193139236085912     
  -14.362916591189643     
   5.2754597750886347     
   1.9933807968405128     
  -5.5302989755167848     
  -52.728374213418398     
   5.3986397791154088     
  -10.430874107945895     
   3.7445775354387045     
  -17.560943484426769     
   6.6549457130521947     
   1.3454041952302227     
 -0.77871805404178707     
   1.1643437040993685     
  -11.585579441065512     
  -5.0603610601658369E-002
  -1.7637118862253512E-002
   9.4807308567972246     
  -28.768166823831297     
  -12.980813368718424     
   26.264761238347294     
   8.6963594467678593     
  -25.410198452733535     
   91.071628011979030     
  -52.127471750551649     
   2.5928832141895901     
  -5.1669542956418271     
  -26.729175245974176     
  -4.4115267248011838     
   7.4685820832072434     
  -2.1885735817109393     
  0.85174538612911976     
  -10.406197000032527     
   23.300679423472680     
  -19.775313023492192     
   63.072811433565086     
  -9.7893431197749212     
   88.604837754212113     
  -15.706686353417762     
   2.5927737611363768     
  -3.6545449215418362     
   2.4244635172430828     
  -63.355417544291697     
   91.747433139113241     
   1.2810406854935832     
  -30.813376160251213     
   8.0828966908839917     
  -16.998574101916699     
   80.704852577684193     
   4.7514034564933478     
  -18.772431872040276     
  -3.7228606416436425     
   95.673513391385200     
   8.9534435905383987     
  -35.233497105124023     
  -32.536042919502592     
  -5.9969635896409050     
   1.4124820959724038     
  -15.552887223784602     
   146.52993732348105     
  -60.169615353756264     
   116.44158975688291     
   4.9756150906151282     
  -55.796140476437770     
  -1.0680798730667034     
  -1.6682543662689975     
  -13.987849445293094     
   39.418815413463548     
  -1.0636210878833878     
   1.4864406713225240     
  -14.181803045772034     
   90.224721183432621     
   210.15775700051037     
  -43.328546233705111     
  -35.079310777029932     
   6.4304103813045019     
   243.40289956510810     
  -24.414267265896388     
   282.02871506760016     