 <VTKFile type="UnstructuredGrid" version="0.1"  byte_order="LittleEndian">
 <UnstructuredGrid>
 <Piece NumberOfPoints="1616" NumberOfCells="2912">
 <PointData>
 <DataArray type="Float64" Name="u" format="ascii">
   1.0000000000000000     
   4.4816890703380645     
   7.3890560989306513     
   1.6487212707001284     
   1.4549914146182013     
   1.8682459574322223     
   2.1170000166126748     
   2.2535347872132085     
   2.7182818284590451     
   2.5535894580629268     
   4.4816890703380645     
   4.7707331819676027     
   3.4903429574618414     
   3.7154507379411039     
   3.2788737679386735     
   4.7707331819676027     
   5.4059489251411668     
   3.7154507379411039     
   3.6237159323669421     
   2.4905411096998309     
   2.5535894580629268     
   3.7154507379411044     
   1.0253151205243156     
   1.0512710963757901     
   1.0778841508842707     
   1.1051709180751614     
   1.1331484530662259     
   1.1618342427275639     
   1.1912462166115145     
   1.2214027581591678     
   1.2523227161906676     
   1.2840254166863452     
   1.3165306748660632     
   1.3498588075742850     
   1.3840306459788667     
   1.4190675485911983     
   1.4549914146159608     
   1.4918246976388401     
   1.5295904196607508     
   1.5683121854873350     
   1.6080141974827338     
   1.6487212706968550     
   1.6904588483755849     
   1.7332530178636454     
   1.7771305269100355     
   1.8221188003862423     
   1.8682459574276815     
   1.9155408290090694     
   1.9640329759647235     
   2.0137527074650436     
   2.0647310999607322     
   2.1170000166066321     
   2.1705921271774078     
   2.2255409284864940     
   2.2818807653233981     
   2.3396468519201603     
   2.3988752939613494     
   2.4596031111512913     
   2.5218682603525884     
   2.5857096593103934     
   2.6511672109772695     
   2.7182818284538341     
   2.7870954605607743     
   2.8576511180582331     
   2.9299929005289265     
   3.0041660239418255     
   3.0802168489136021     
   3.1581929096855288     
   3.2381429438339251     
   3.3201169227327285     
   3.4041660827872295     
   3.4903429574584957     
   3.5787014100984926     
   3.6692966676164276     
   3.7621853549973849     
   3.8574255306947562     
   3.9550767229186783     
   4.0551999668431185     
   4.1578578427548116     
   4.2631145151680023     
   4.3710357729293374     
   4.5951435693064573     
   4.7114701825903049     
   4.8307416181095642     
   4.9530324243940198     
   5.0784190371785884     
   5.2069798271779391     
   5.3387951490708296     
   5.4739473917243942     
   5.6125210296898711     
   5.7546026760019737     
   5.9002811363155203     
   6.0496474644097598     
   6.2027950191020071     
   6.3598195225993202     
   6.5208191203279666     
   6.6858944422775082     
   6.8551486658978238     
   7.0286875805883673     
   7.2066196538199945     
   7.2066196538226297     
   7.0286875805935098     
   6.8551486659053475     
   6.6858944422865303     
   6.5208191203368768     
   6.3598195226079763     
   6.2027950191104253     
   6.0496474644190634     
   5.9002811363267531     
   5.7546026760148372     
   5.6125210297019681     
   5.4739473917354093     
   5.3387951490808083     
   5.2069798271869265     
   5.0784190371866282     
   4.9530324244011519     
   4.8307416181158276     
   4.7114701825958223     
   4.5951435693113210     
   4.4816890703423979     
   4.3710357729344231     
   4.2631145151738572     
   4.1578578427614001     
   4.0551999668504006     
   3.9550767229266155     
   3.8574255307033076     
   3.7621853550065190     
   3.6692966676261118     
   3.5787014101086876     
   3.4903429574691001     
   3.4041660827977331     
   3.3201169227430585     
   3.2381429438440827     
   3.1581929096955186     
   3.0802168489234241     
   3.0041660239514822     
   2.9299929005384207     
   2.8576511180675670     
   2.7870954605699501     
   2.7182818284628527     
   2.6511672109861348     
   2.5857096593191056     
   2.5218682603611504     
   2.4596031111597059     
   2.3988752939696179     
   2.3396468519282849     
   2.2818807653313820     
   2.2255409284943379     
   2.1705921271851145     
   2.1170000166141572     
   2.0647310999677879     
   2.0137527074716051     
   1.9640329759708097     
   1.9155408290147009     
   1.8682459574328767     
   1.8221188003910194     
   1.7771305269144115     
   1.7332530178676382     
   1.6904588483792098     
   1.6080141974856155     
   1.5683121854898421     
   1.5295904196631134     
   1.4918246976412701     
   1.4549914146184533     
   1.4190675485937494     
   1.3840306459814711     
   1.3498588075769391     
   1.3165306748687629     
   1.2840254166890632     
   1.2523227161930366     
   1.2214027581611862     
   1.1912462166132256     
   1.1618342427290083     
   1.1331484530674156     
   1.1051709180761076     
   1.0778841508849679     
   1.0512710963762426     
   1.0253151205245354     
   1.4233532759747562     
   1.4002903799874398     
   1.3862746195367184     
   1.3815738283960353     
   1.3862746195364588     
   1.4002903799869066     
   1.4233532759739786     
   1.4549914146174494     
   1.4944946608473570     
   1.5408750779555491     
   1.5928304288573760     
   1.6487212706996939     
   1.7065732668150890     
   1.7641156426934461     
   1.8188635260273727     
   1.9097731212213831     
   1.9412272392268883     
   1.9608537804489532     
   1.9675255658359474     
   1.9608537804493320     
   1.9412272392276348     
   1.9097731212224556     
   1.8682459574331844     
   1.8188635260281130     
   1.7641156426942675     
   1.7065732668160469     
   1.6487212707006151     
   1.5928304288582260     
   1.5408750779562546     
   1.4944946608479899     
   2.0886234879043073     
   2.0887805960872177     
   2.1054904988440715     
   2.1324628266587879     
   2.1668935563415173     
   2.2074575037796280     
   2.3049033570773454     
   2.3616087847429439     
   2.4239045902755065     
   2.4921901879343458     
   2.5667406724543822     
   2.6460635579161633     
   2.7552130431032449     
   2.7550058090282201     
   2.7331411275258701     
   2.6985711563479873     
   2.6556923662284131     
   2.6068917141791568     
   2.4966785085959788     
   2.4367298737974989     
   2.3741044507662172     
   2.3090543827136538     
   2.2419883464514627     
   2.1747787043095808     
   4.4389590792483906     
   4.4240511503881894     
   4.4389590792473328     
   4.4816890703372296     
   4.5464086875857745     
   4.6239531527817697     
   4.7028202320447914     
   4.8166568732468660     
   4.8328877836883208     
   4.8166568732480153     
   4.7707331819684917     
   4.7028202320449575     
   4.6239531527823914     
   4.5464086875859353     
   3.4570648069406054     
   3.4454545002702717     
   3.4570648069398047     
   3.4903429574613316     
   3.5407466460546768     
   3.6011383362722702     
   3.6625600793607207     
   3.7512161446709165     
   3.7638567904326905     
   3.7512161446716670     
   3.7154507379415089     
   3.6625600793602668     
   3.6011383362718887     
   3.5407466460542540     
   5.2724755706129924     
   5.1422976849498969     
   5.0153339027356996     
   4.8915048674734898     
   4.7707331819852605     
   4.6529433600361356     
   4.5380617791530176     
   4.4260166346048688     
   4.3167378945292150     
   4.2101572561595422     
   4.1062081031273703     
   4.0048254638282179     
   3.9059459708122346     
   3.8095078211774811     
   3.6104223366341235     
   3.4903429574630591     
   3.3742573097602824     
   3.2788737679397153     
   3.2166479714948042     
   3.1950784846123410     
   3.2166479714942056     
   3.3618788525559409     
   3.4469852208943710     
   3.5342460672046214     
   3.6237159323562116     
   3.7154507379273523     
   3.8095078211577418     
   3.9059459707862132     
   4.0048254637985732     
   4.1062081030969759     
   4.2101572561283787     
   4.3167378944972601     
   4.4260166345721084     
   4.5380617791227866     
   4.6529433600120269     
   4.9095154164107297     
   5.0784190371784526     
   5.2531335029458806     
   5.4059489251399153     
   5.5105265725508294     
   5.5477272958483397     
   5.5105265725502717     
   3.5342460672135392     
   3.4469852209005594     
   3.3618788525600034     
   3.2788737679400803     
   3.1979180861615220     
   3.1189612072878861     
   3.0419537806996120     
   2.9668476742482763     
   2.8935959441724370     
   2.8221528057562497     
   2.7524736047125327     
   2.6845147892723835     
   2.6182338829639047     
   2.5535894580630263     
   2.6182338829634588     
   2.6845147892715739     
   2.7524736047113407     
   2.8221528057546568     
   2.8935959441704231     
   2.9668476742458219     
   3.0419537806966952     
   3.1189612072847739     
   3.1979180861585013     
   3.2788737679371573     
   3.3618788525571861     
   3.4469852208985188     
   3.5342460672118157     
   3.6237159323666068     
   3.0002003534014894     
   4.0254462181133830     
   5.0348227297786670     
   3.7583838801080764     
   1.5028159799777818     
   1.9299506615721174     
   2.1188381638948970     
   2.8433241155119693     
   2.2261810905143027     
   1.6379639293185548     
   2.5481836794092341     
   1.8846867052481315     
   5.9348701190403865     
   4.4083047968948064     
   1.1927521173697737     
   1.6183335491838458     
   2.7474647166909580     
   3.8233041416381881     
   1.4611721750708822     
   2.0539857466910543     
   3.0887622565719015     
   4.5816418655872599     
   5.0333189708602175     
   3.3980446543267853     
   1.7173683851630246     
   1.8993262367537034     
   2.9034251248087162     
   2.4471153429487744     
   1.2535692941451033     
   1.4871495346088599     
   1.2560475084410578     
   1.7916597938686230     
   5.6463178645307721     
   3.9417787941993310     
   3.8541287738241210     
   4.7699898491580486     
   3.3006800915790753     
   4.0871850079647212     
   1.4214887137602406     
   2.0383635436196825     
   1.6733917563849019     
   2.0285747986328748     
   1.5266981439177543     
   2.2243379960912821     
   3.2624343498269899     
   2.2465791514608400     
   1.3893354641823890     
   1.3306579684981241     
   1.9501939644280637     
   2.6110073430128753     
   2.0778207502785406     
   2.8858829269444732     
   3.5642605890768633     
   1.8519718620126846     
   2.8840256886409121     
   1.9562788296465798     
   4.8907974462643029     
   3.2495702726681235     
   1.4676521961901932     
   2.1372346068034602     
   2.3683817053271499     
   1.8671012720054145     
   1.7362044557079470     
   2.5581971733662128     
   3.1155755486090499     
   4.2611278915022375     
   1.5592163068656968     
   1.8993175071677026     
   4.8207289096673955     
   5.9462357449036389     
   2.9029052137071143     
   4.3350051088611270     
   4.8925662746002434     
   5.3331365059876052     
   3.5789764098169208     
   3.5512649281578037     
   2.8570150099189440     
   2.6998803806699403     
   2.9996783962101885     
   3.7675384162500531     
   5.4417678876993998     
   4.2483740376962391     
   6.5484635961849484     
   4.4375084393906477     
   4.1050680046272543     
   2.7706830580572359     
   1.1073469055336354     
   1.6366561759801102     
   1.3048914715240398     
   2.7291465336208356     
   2.2868038443360210     
   3.1326691383904772     
   2.3941929780717568     
   1.6187317274987072     
   2.4068749177364275     
   2.2417355495623190     
   1.8736350314697932     
   6.0981139168366543     
   4.0821732644892172     
   1.2844111885766780     
   1.5925573844513858     
   1.5227430707428227     
   1.1711514851349138     
   1.1705366415269780     
   1.7447420238168510     
   2.6039417541607288     
   3.8942639750088546     
   5.1325525254254662     
   4.1195272322185605     
   2.0243083622152458     
   2.4931294461597275     
   1.7885875225196444     
   1.9968895102150845     
   3.1146484923220328     
   2.0687397292169107     
   2.7704408329371928     
   1.8362571959880738     
   3.2037774178063296     
   3.9011909708621122     
   4.8661546394207038     
   3.4443103138180353     
   3.2196697316371261     
   4.5695695989295482     
   6.3388803788380672     
   4.6930230725223732     
   1.4258373275296197     
   2.1586783009120070     
   5.5908422081296427     
   3.7038746525745463     
   1.9908206140093518     
   1.4879639246835588     
   1.5494686651688501     
   2.0810009396573359     
   2.7256692145601389     
   3.6614923218117790     
   3.5143184134511358     
   4.2164561575308390     
   3.8709447921996443     
   4.6618031043341226     
   5.6081936993076953     
   4.5932797131782532     
   1.3583562419245288     
   2.0526783508212398     
   3.2961832324604634     
   4.2894142281889831     
   2.9923562818160607     
   3.4204637714539858     
   1.2923697596536281     
   1.6961696523561993     
   4.7950593020920600     
   3.6714305442516308     
   1.4690355217800461     
   1.9641983929101057     
   5.1728301048987246     
   5.8777464988838570     
   1.4530640341325625     
   2.2342105557983842     
   1.6052155378327952     
   1.9119835882979794     
   2.8029391986192929     
   2.5281394130729491     
   1.4071718645427451     
   1.9131556299219408     
   1.2604394981590257     
   1.8680058294401161     
   1.9604825867896891     
   1.8664612037986705     
   1.7693858265192610     
   4.0510590459900930     
   2.6643254974352910     
   1.4645675364138535     
   1.8278380978819664     
   1.3247453333204500     
   1.9548500545884915     
   1.4076260373317566     
   1.3345107483567591     
   2.6607418138940342     
   2.8377003593518073     
   3.9146272802654885     
   3.0118892103916100     
   4.8113645830156946     
   3.3701711950033895     
   1.5504776382540355     
   1.9523632223853449     
   2.7259370273649912     
   2.0041759467363853     
   3.5359287923145915     
   2.3120028482615833     
   2.3539952378207003     
   1.5209592949236446     
   1.8922359443988614     
   1.6653560173872550     
   4.9104567710567331     
   4.0359074507471320     
   2.3673135217070045     
   1.7316691772877779     
   5.2707149000189171     
   3.9045035327447755     
   2.9056381218883960     
   2.2822622128023640     
   3.2711188464228704     
   3.4139640458966456     
   4.4451567328969350     
   4.2907191880643261     
   2.5426058581811199     
   1.3784441190399941     
   3.1106108071142407     
   4.8357191784585796     
   4.7309492688727977     
   3.5607446001602838     
   3.7655383990389288     
   1.2372726712865174     
   5.7191227325341458     
   4.1609731495016895     
   3.3348499821607254     
   4.7212368446890585     
   5.1315695911393480     
   3.2960428768565295     
   1.4679442356477559     
   2.0778748650670722     
   3.1273332170913863     
   4.8594017438804524     
   5.9534178777146716     
   3.8629382810458179     
   1.4570068169930810     
   1.2009203565610529     
   1.8396555493883209     
   2.9680289375803937     
   4.6119643461738180     
   1.8611214124476527     
   2.1188135799314041     
   3.0173366550513450     
   3.6332926509521934     
   1.2209536647344295     
   1.6990190579586466     
   1.5564631837413780     
   1.1195120193713792     
   1.7226206209131196     
   1.1188424744529337     
   6.4946292494438698     
   4.2156304734331851     
   3.0525285592528411     
   2.2285187911363287     
   1.5862292397264464     
   2.4719821507431643     
   5.3263895224720903     
   3.4394147445597456     
   4.7641422509085256     
   3.1970289327987298     
   2.8734796376703682     
   3.3406163131649076     
   2.3941946529825184     
   1.3215432968457548     
   2.2489573708631534     
   2.6501003741229772     
   2.8607416284031486     
   4.1008961091147285     
   2.4283365174281544     
   2.0307910137648046     
   4.9526385856412700     
   3.3552100763975523     
   3.0088980788542208     
   4.3793674336840125     
   2.8463755374881807     
   3.6881461948890446     
   1.2177817302826714     
   1.5466213349382987     
   1.4622633300177701     
   1.9761472101562556     
   3.1069518158700222     
   3.2636129865103816     
   2.1507100455210204     
   1.3874502914640425     
   1.5671246367532594     
   2.2560023918666596     
   1.6629017850368317     
   2.1207137749929283     
   1.7234622357462694     
   2.7104646635472349     
   5.0797590715746246     
   3.4902604011978573     
   5.4483804071070212     
   5.6847820727441150     
   2.8125592844563450     
   4.3484920099765958     
   2.1603218044779289     
   2.5763691441468515     
   1.9264862500317959     
   3.0176277846742949     
   2.7103019202932774     
   2.1332550033723887     
   3.3547867673845517     
   2.1651679347880415     
   3.8807745052236720     
   2.5148305830406681     
   1.5637193833886409     
   1.9713369983029412     
   2.7677941247431641     
   1.3199244671938932     
   1.5424120631027585     
   3.1295544440486474     
   4.0848506179651700     
   2.0160107690085169     
   3.1343048479441880     
   1.8018044050671871     
   2.8037377706344806     
   5.2419195526740259     
   4.3540876933082675     
   1.9877509520040340     
   2.3410764648729181     
   2.9549446350895567     
   2.0448949799901861     
   5.3138746438233726     
   3.6918786204924849     
   1.6517624950608867     
   2.3886967403106665     
   1.3027646089612885     
   2.0136459580191457     
   1.1895125990073794     
   6.9097252929530244     
   4.4693658019207767     
   3.8871168870777169     
   4.5660869637053825     
   2.7396415010836801     
   1.8857961184010261     
   2.9781299826443681     
   4.1590963537555279     
   1.3850790063217853     
   1.8841217145612934     
   2.8562360838645180     
   3.4670591723500608     
   1.5959352715904369     
   1.8802449212024479     
   2.4309083020853333     
   3.7448876577901102     
   4.3988803373693948     
   3.1157342089157014     
   4.9494552563201379     
   3.5070564682982939     
   1.0697341422290634     
   1.6453791031796665     
   2.2487903963496181     
   1.7489521054800670     
   2.5881775604066650     
   1.9604534020264517     
   4.9109645286354979     
   6.2705836082855697     
   1.7720882606385848     
   2.5018941375949564     
   4.8842794139961985     
   3.7331447818861534     
   3.1381387835874217     
   3.7585214173274797     
   4.9568402231689435     
   5.7055406771108057     
   2.4499721285513654     
   1.8853840291463757     
   2.7462536797803985     
   2.4241190656672171     
   5.0488168844410124     
   3.6160784833952362     
   1.5101327144405263     
   2.3613527023517338     
   2.6316063225108777     
   3.7410162818460670     
   5.4593365936982359     
   4.5688917082406633     
   5.9122786099301106     
   4.6179037583540179     
   6.2087877176539337     
   4.3303458750518340     
   3.6281959197724567     
   4.2846997188928624     
   1.4601119649358207     
   2.0742258525188193     
   1.4506032997368228     
   1.9481370460681393     
   6.6199069225508040     
   4.6366725172394050     
   1.5095751091374281     
   1.9181057658462168     
   5.7074487917012631     
   4.3729527892069369     
   2.9933245132758470     
   3.8913484431784453     
   1.3559039939624762     
   3.3444741765179349     
   3.9789522648143576     
   1.1406772153352309     
   1.6048383890744129     
   1.4519606197438042     
   2.0531326339647173     
   1.9228477663687018     
   1.6119892640922964     
   2.7914585968867311     
   2.2178002277154274     
   1.9353249709767506     
   5.4866107577040486     
   4.1071544259442332     
   1.8326193631788610     
   1.6819009479490896     
   1.1520962739991423     
   2.6501780568798203     
   3.0518838507130401     
   3.5163520490712448     
   1.7866439738947575     
   1.8838448840391828     
   1.7453932155185521     
   5.5712984908753738     
   3.5960087809868599     
   1.3374306473565958     
   4.2433488308755933     
   2.7129236383743418     
   5.1372415687903752     
   6.1048952475749969     
   2.7793056133325069     
   1.4924408224834336     
   1.9783911960176821     
   1.6358314968266774     
   1.2357277083914493     
   2.9995403856982126     
   2.6784086998750571     
   3.8139633334420133     
   1.9678987591095645     
   1.6737918583913807     
   4.0779018387464951     
   2.5969851571533642     
   3.9496170702933679     
   6.1985807010301937     
   2.7773242879982556     
   3.9435900535600972     
   3.0313562930356577     
   2.1095181875148192     
   2.7715758493608802     
   3.5370507887420466     
   1.4549533098746521     
   2.0331171618190491     
   1.4911893059011281     
   2.0429719688578167     
   3.2556710073659150     
   2.5317222152685295     
   2.6654193783248159     
   1.9477794889875086     
   3.2226927283002009     
   5.0541026015837547     
   2.8011136587162162     
   2.3887802321128930     
   2.8831450819692908     
   1.2609338263914023     
   5.4433939749063551     
   3.8269375755452306     
   2.8888148782834313     
   4.5516743616979047     
   2.6105910376689221     
   1.3202761666659835     
   1.6430786779426103     
   3.4408161430333606     
   4.0847584417725225     
   1.0863332606957634     
   1.5882557191596240     
   1.0870313409509635     
   1.7028074903794703     
   1.2837887556985743     
   6.7424730424713530     
   4.3206316436366601     
   1.4423492834178790     
   2.2566328054981692     
   4.4703053077540940     
   3.8026623357912026     
   4.8007344164970576     
   4.0184902958959148     
   5.0082089328471460     
   3.9353910177874383     
   3.0070590564556259     
   2.4070022735769658     
   1.9144485413649186     
   2.0489576098858744     
   4.9997298131625607     
   4.2114505801536799     
   6.2199020306590356     
   4.4916927818326293     
   2.5345509106854371     
   2.1770106812979688     
   1.6745046919552085     
   2.6838784285439923     
   3.0538845814185036     
   4.7189272463948200     
   1.5060943983275012     
   1.1409862463818221     
   1.7868885073409364     
   1.1381880816183263     
   2.8224951115063974     
   3.8304562717830777     
   1.3486502920487480     
   3.3030416221849932     
   3.0031951710103448     
   3.1911671447581971     
   4.0006625562483640     
   5.8598186924971429     
   5.3586607958054229     
   2.7885028989919243     
   2.2292453421424239     
   3.1573179802249824     
   5.9075545411800547     
   3.9727864168217626     
   1.8931422011685206     
   1.7429428018226780     
   1.4062312597963029     
   2.2214620349109020     
   1.3046191283549611     
   1.4234214229716229     
   1.8856239747761960     
   4.8395646783617687     
   3.5155874774474252     
   5.9849940225516542     
   4.2196333629249425     
   2.1406405135660016     
   1.3563937166093862     
   1.7638721671388675     
   1.9457704695612241     
   3.3368045074909580     
   4.6104589588582012     
   5.2023480026584972     
   3.3753327010993184     
   1.5503645192435263     
   1.9673645186173874     
   2.2429239395128548     
   3.5329311168256030     
   1.5850629257269404     
   2.5244532493531442     
   3.5414672037249013     
   4.3305126310124749     
   1.7706444306156648     
   2.1419130030877467     
   1.9966188503871527     
   1.2638249912690418     
   5.9177897467256404     
   3.7582420882972278     
   1.4432637886939312     
   2.1473557363535982     
   1.3932804339396145     
   2.0150453678401443     
   5.3093888701297338     
   4.1726526241619339     
   2.6197243816411859     
   1.8383514290306284     
   4.0874039802511959     
   6.4189555812070980     
   4.3681367860874021     
   3.7109457833879311     
   3.0980943540722690     
   3.3521555400534648     
   2.0775096039873207     
   3.2972616913898247     
   1.2075697980738400     
   1.2729087949273683     
   1.5356044938958915     
   3.8035140646813752     
   4.6563408996513536     
   1.4822863249645943     
   2.0042150538823358     
   1.8625588410475291     
   2.9510228949162842     
   1.4847018478280778     
   2.3589118772554332     
   2.7036112907864260     
   2.3766262216484488     
   1.2128038014158353     
   1.4996986632007701     
   1.7664219232285148     
   1.4085541038187976     
   1.9079256595524785     
   1.2184072272257853     
   2.3506418843883994     
   3.7175240934820528     
   3.9164913415780322     
   2.6797737334377651     
   5.5164485219589032     
   3.5108700264499988     
   2.7728446644863634     
   3.7116677041869228     
   2.6719059779490286     
   1.7940282469580515     
   1.5108788866877327     
   1.9706015519827924     
   1.5808286320733893     
   1.1778186404053979     
   1.3196210810254645     
   2.0822523238425732     
   1.3671870481915245     
   1.9869264846625758     
   2.0156634757351179     
   2.3229921397167366     
   3.1899914273065963     
   2.3117972319412101     
   5.2563084858616431     
   5.6778794961502461     
   2.6727539659819133     
   3.1311803552189157     
   4.8748504508883830     
   3.8821816168667973     
   3.2953384103323362     
   4.7974718641477443     
   3.9949333167920029     
   2.5427917203100847     
   4.8705156919210086     
   6.4665055336809036     
   2.4029598581881060     
   1.8128520182893082     
   3.2370927992852234     
   4.1592264252575992     
   6.0992385651996734     
   4.7484718733949043     
   3.3959600865736732     
   4.4105799602193594     
   1.9186809371026385     
   1.6833527715675389     
   2.8972749611313438     
   3.3781057361450544     
   3.4695769913468264     
   2.3810659820638467     
   2.2049168251348275     
   1.4919186385557233     
   1.5663630574999006     
   2.3502072015212456     
   1.4105572305676677     
   2.1180925939399762     
   4.7906362803858649     
   3.6734540553616064     
   2.0493872958132551     
   1.9881580721134120     
   1.3887663966000487     
   1.5944791983741866     
   1.3394998673092720     
   5.7061671082214609     
   3.8359940729819413     
   2.1612366257385807     
   3.2177438676229149     
   1.3394382344560687     
   1.2879236499455389     
   1.9191098217402520     
   2.1152991374241896     
   1.7509501410132911     
   2.6850715569149872     
   3.6223333755407783     
   5.5420969895129906     
   4.7331604569247148     
   1.8853969652925451     
   1.7129679196823260     
   1.4485715302478399     
   1.8492981541524320     
   1.2399186484336044     
   1.1676789099599871     
   1.4586777583950887     
   1.8493347404693705     
   1.6061878044382387     
   2.0543822352131915     
   3.3222927200903571     
   3.8807014000902105     
   1.4587727697480946     
   2.0145181696699916     
   5.7468670517981177     
   4.7622144183357111     
   3.3834028346946026     
   2.4936797666002732     
   4.7171671929033332     
   3.9383928240050756     
   1.6010782507693218     
   2.1638898473480115     
   1.6883945567213479     
   1.9392879837239259     
   4.8098753273381494     
   3.7458066532714636     
   2.8036717596001459     
   3.5972835117614066     
   2.6418532206733030     
   2.0103827424489729     
   2.8378997877036425     
   1.7781627978874588     
   1.2972207404936535     
   1.4978756307943326     
   3.1613556638384956     
   1.9833489764314947     
   2.5462037287051111     
   1.2934937676108498     
   1.9522317555056110     
   1.4653264713863363     
   2.2210329388178587     
   2.7637831514714675     
   4.3884428854757829     
   1.5249746513589573     
   2.1118989714650684     
   3.0069297109476834     
   6.8519613671466164     
   4.6159960009421557     
   2.4393567635331119     
   1.9669198262815626     
   2.1681239647925987     
   2.6611353432994842     
   2.0867499366803215     
   1.3884623638582447     
   2.5611925138819132     
   2.0632908813476445     
   2.2972337710680355     
   1.8526038652327756     
   2.8573227825752108     
   2.3408189494392579     
   2.0089737359775350     
   2.9957804109840676     
   2.7747307803193064     
   2.5560613634350928     
   1.5157117340534048     
   1.9290887532379262     
   3.1325963401211574     
   3.6685405137051417     
   1.5478778909393827     
   1.9327720671378521     
   5.1132871348921993     
   4.3359657352682754     
   2.2744793457269563     
   2.6342155379733296     
   1.8209781584115596     
   1.4949747644834561     
   1.3753115434073158     
   1.8471213271025289     
   1.2013586421463374     
   2.9338412708585677     
   3.5090627647321022     
   3.0888951292768017     
   3.9589770168265042     
   2.7208504000097582     
   4.0551360846250741     
   2.7661082495930698     
   1.9457083982106693     
   1.8740726735380735     
   1.8066540838555223     
   5.2864042677133183     
   6.0204255113717657     
   2.9768786400911056     
   1.9234336207605380     
   1.4386547556581448     
   2.9071165938322538     
   3.9884899477474884     
   1.3382864894501227     
   1.6907169181650867     
   2.6430631753576730     
   4.2028567755673123     
   1.4769556690824905     
   1.9709270562310701     
   1.8187435425310090     
   2.7594952952823535     
   2.0870896949340882     
   3.0179971705997621     
   4.5300193808351983     
   4.9865398721827416     
   5.8819275956545196     
   1.5437509914987060     
   2.3552504849543596     
   1.3725541248300128     
   2.8717676063248390     
   2.9436311591661286     
   3.6801522449063366     
   2.5145073945128775     
   2.8482774606662513     
   2.8230620083602656     
   4.0338451677792095     
   5.2162000246967484     
   3.7976113716400599     
   2.2965836957160186     
   1.6198296621805464     
   5.1419482646457464     
   3.4327461235606975     
   5.4177137547314667     