 <VTKFile type="UnstructuredGrid" version="0.1"  byte_order="LittleEndian">
 <UnstructuredGrid>
 <Piece NumberOfPoints="65" NumberOfCells="96">
 <PointData>
 <DataArray type="Float64" Name="u" format="ascii">
   1.0000000000000000     
   2.1170000166126752     
   2.7182818284590451     
   1.2840254166877414     
   1.0644944589175920     
   1.1331484530662570     
   1.2062302494200716     
   1.2840254166866338     
   1.3668379411724683     
   1.4549914146166290     
   1.6537068579710179     
   1.6487212706987497     
   1.7550546569590459     
   1.8682459574313335     
   1.9887374695818187     
   2.2535347872128706     
   2.3988752939665110     
   2.5535894580625040     
   2.5535894580636653     
   2.3988752939684854     
   2.2535347872151639     
   2.1170000166143885     
   1.9887374695837869     
   1.8682459574335193     
   1.7357236542672472     
   1.6487212707010821     
   1.5488302986349392     
   1.4549914146187062     
   1.3668379411740337     
   1.2062302494210853     
   1.1331484530672196     
   1.0644944589181364     
   1.1565799713557341     
   1.2374454016502030     
   1.3087461764458237     
   1.2421686387708317     
   1.3324474321716082     
   1.4043951990221133     
   1.3276391441309321     
   1.4257046620255924     
   1.5000250902139995     
   1.4163772039131337     
   1.5213363730318703     
   1.5984213006934787     
   1.5111372593520986     
   1.6220935421735869     
   1.6993863755701433     
   1.6164915187765061     
   1.7322981494036853     
   1.8155292241963268     
   1.7433231855897680     
   1.8493005890723064     
   1.9347459941082077     
   1.8280159957734274     
   1.9593946620131928     
   2.0562065548958501     
   1.9331844177521895     
   2.0748454178765643     
   2.1825914162134414     
   2.0456113927407333     
   2.1931170589740789     
   2.3126793783904462     
   2.1568039459770185     
   2.3062325156446954     
   2.4408993997304025     
 </DataArray>
 <DataArray type="Float64" Name="uexa" format="ascii">
   1.0000000000000000     
   2.1170000166126748     
   2.7182818284590451     
   1.2840254166877414     
   1.0644944589175920     
   1.1331484530662570     
   1.2062302494200716     
   1.2840254166866338     
   1.3668379411724683     
   1.4549914146166290     
   1.5488302986326488     
   1.6487212706987497     
   1.7550546569590459     
   1.8682459574313335     
   1.9887374695818187     
   2.2535347872128706     
   2.3988752939665110     
   2.5535894580625040     
   2.5535894580636653     
   2.3988752939684854     
   2.2535347872151634     
   2.1170000166143885     
   1.9887374695837867     
   1.8682459574335191     
   1.7550546569614152     
   1.6487212707010819     
   1.5488302986349392     
   1.4549914146187062     
   1.3668379411740335     
   1.2062302494210853     
   1.1331484530672196     
   1.0644944589181364     
   1.1331484530669180     
   1.2062302494212929     
   1.2840254166879124     
   1.2062302494208623     
   1.2840254166879606     
   1.3668379411740414     
   1.2840254166873852     
   1.3668379411739091     
   1.4549914146185299     
   1.3668379411732785     
   1.4549914146182124     
   1.5488302986344749     
   1.4549914146175023     
   1.5488302986340290     
   1.6487212707004839     
   1.5488302986332321     
   1.6487212706998937     
   1.7550546569606684     
   1.6487212706992875     
   1.7550546569601204     
   1.8682459574327148     
   1.7550546569595298     
   1.8682459574321091     
   1.9887374695829216     
   1.8682459574315387     
   1.9887374695822524     
   2.1170000166134573     
   1.9887374695817073     
   2.1170000166124736     
   2.2535347872136389     
   2.1170000166122045     
   2.2535347872128266     
   2.3988752939671287     
 </DataArray>
 <DataArray type="Float64" Name="erreur" format="ascii">
   0.0000000000000000     
   4.4408920985006262E-016
   0.0000000000000000     
   0.0000000000000000     
   0.0000000000000000     
   0.0000000000000000     
   0.0000000000000000     
   0.0000000000000000     
   0.0000000000000000     
   0.0000000000000000     
  0.10487655933836915     
   0.0000000000000000     
   0.0000000000000000     
   0.0000000000000000     
   0.0000000000000000     
   0.0000000000000000     
   0.0000000000000000     
   0.0000000000000000     
   0.0000000000000000     
   0.0000000000000000     
   4.4408920985006262E-016
   0.0000000000000000     
   2.2204460492503131E-016
   2.2204460492503131E-016
  -1.9331002694167987E-002
   2.2204460492503131E-016
   0.0000000000000000     
   0.0000000000000000     
   2.2204460492503131E-016
   0.0000000000000000     
   0.0000000000000000     
   0.0000000000000000     
   2.3431518288816067E-002
   3.1215152228910137E-002
   2.4720759757911326E-002
   3.5938389349969402E-002
   4.8422015483647662E-002
   3.7557257848071846E-002
   4.3613727443546857E-002
   5.8866720851683318E-002
   4.5033675595469669E-002
   4.9539262739855205E-002
   6.6344958413657951E-002
   4.9591002059003797E-002
   5.6145844734596384E-002
   7.3263243539557932E-002
   5.0665104869659361E-002
   6.7661220143274026E-002
   8.3576878703791602E-002
   6.0474567235658361E-002
   9.4601914890480421E-002
   9.4245932112186015E-002
   6.6500036675492868E-002
   7.2961338813897658E-002
   9.1148704581083706E-002
   6.7469085312928501E-002
   6.4938460320650870E-002
   8.6107948294311898E-002
   6.5591399599984168E-002
   5.6873923159026063E-002
   7.6117042361605325E-002
   5.9144591176807371E-002
   3.9803929364814028E-002
   5.2697728431868818E-002
   4.2024105763273756E-002
 </DataArray>
 </PointData>
 <Points>
 <DataArray type="Float64" Name="Nodes" NumberOfComponents="3" format="ascii">
   0.0000000000000000        0.0000000000000000        0.0000000000000000     
   6.0000000000000000        0.0000000000000000        0.0000000000000000     
   6.0000000000000000        2.0000000000000000        0.0000000000000000     
   0.0000000000000000        2.0000000000000000        0.0000000000000000     
  0.49999999999799027        0.0000000000000000        0.0000000000000000     
  0.99999999999598055        0.0000000000000000        0.0000000000000000     
   1.4999999999939710        0.0000000000000000        0.0000000000000000     
   1.9999999999930991        0.0000000000000000        0.0000000000000000     
   2.4999999999922271        0.0000000000000000        0.0000000000000000     
   2.9999999999913549        0.0000000000000000        0.0000000000000000     
   3.4999999999923328        0.0000000000000000        0.0000000000000000     
   3.9999999999933111        0.0000000000000000        0.0000000000000000     
   4.4999999999942899        0.0000000000000000        0.0000000000000000     
   4.9999999999961933        0.0000000000000000        0.0000000000000000     
   5.4999999999980966        0.0000000000000000        0.0000000000000000     
   6.0000000000000000       0.49999999999879968        0.0000000000000000     
   6.0000000000000000       0.99999999999804323        0.0000000000000000     
   6.0000000000000000        1.4999999999986751        0.0000000000000000     
   5.5000000000023128        2.0000000000000000        0.0000000000000000     
   5.0000000000046274        2.0000000000000000        0.0000000000000000     
   4.5000000000069393        2.0000000000000000        0.0000000000000000     
   4.0000000000064766        2.0000000000000000        0.0000000000000000     
   3.5000000000060139        2.0000000000000000        0.0000000000000000     
   3.0000000000055520        2.0000000000000000        0.0000000000000000     
   2.5000000000050902        2.0000000000000000        0.0000000000000000     
   2.0000000000046270        2.0000000000000000        0.0000000000000000     
   1.5000000000041640        2.0000000000000000        0.0000000000000000     
   1.0000000000027760        2.0000000000000000        0.0000000000000000     
  0.50000000000138822        2.0000000000000000        0.0000000000000000     
   0.0000000000000000        1.5000000000006939        0.0000000000000000     
   0.0000000000000000        1.0000000000027760        0.0000000000000000     
   0.0000000000000000       0.50000000000208167        0.0000000000000000     
  0.49999999999883982       0.50000000000180811        0.0000000000000000     
  0.49999999999968919        1.0000000000023810        0.0000000000000000     
  0.50000000000053868        1.5000000000005260        0.0000000000000000     
  0.99999999999767952       0.50000000000153466        0.0000000000000000     
  0.99999999999937850        1.0000000000019871        0.0000000000000000     
   1.0000000000010769        1.5000000000003570        0.0000000000000000     
   1.4999999999965190       0.50000000000126121        0.0000000000000000     
   1.4999999999990670        1.0000000000015929        0.0000000000000000     
   1.5000000000016160        1.5000000000001901        0.0000000000000000     
   1.9999999999959810       0.50000000000098754        0.0000000000000000     
   1.9999999999988629        1.0000000000011979        0.0000000000000000     
   2.0000000000017448        1.5000000000000211        0.0000000000000000     
   2.4999999999954419       0.50000000000071421        0.0000000000000000     
   2.4999999999986580        1.0000000000008040        0.0000000000000000     
   2.5000000000018741        1.4999999999998530        0.0000000000000000     
   2.9999999999949050       0.50000000000044076        0.0000000000000000     
   2.9999999999984528        1.0000000000004099        0.0000000000000000     
   3.0000000000020020        1.4999999999996840        0.0000000000000000     
   3.4999999999957541       0.50000000000016709        0.0000000000000000     
   3.4999999999991731        1.0000000000000151        0.0000000000000000     
   3.5000000000025930        1.4999999999995159        0.0000000000000000     
   3.9999999999966018       0.49999999999989359        0.0000000000000000     
   3.9999999999998939       0.99999999999962086        0.0000000000000000     
   4.0000000000031859        1.4999999999993470        0.0000000000000000     
   4.4999999999974518       0.49999999999962019        0.0000000000000000     
   4.5000000000006146       0.99999999999922640        0.0000000000000000     
   4.5000000000037774        1.4999999999991800        0.0000000000000000     
   4.9999999999983018       0.49999999999934669        0.0000000000000000     
   5.0000000000004086       0.99999999999883205        0.0000000000000000     
   5.0000000000025171        1.4999999999990110        0.0000000000000000     
   5.4999999999991500       0.49999999999907307        0.0000000000000000     
   5.5000000000002061       0.99999999999843758        0.0000000000000000     
   5.5000000000012594        1.4999999999988429        0.0000000000000000     
 </DataArray>
 </Points>
 <Cells>
 <DataArray type="Int32" Name="connectivity" format="ascii">
           0           4          31
          31           4          32
          31          32          30
          30          32          33
          30          33          29
          29          33          34
          29          34           3
           3          34          28
           4           5          32
          32           5          35
          32          35          33
          33          35          36
          33          36          34
          34          36          37
          34          37          28
          28          37          27
           5           6          35
          35           6          38
          35          38          36
          36          38          39
          36          39          37
          37          39          40
          37          40          27
          27          40          26
           6           7          38
          38           7          41
          38          41          39
          39          41          42
          39          42          40
          40          42          43
          40          43          26
          26          43          25
           7           8          41
          41           8          44
          41          44          42
          42          44          45
          42          45          43
          43          45          46
          43          46          25
          25          46          24
           8           9          44
          44           9          47
          44          47          45
          45          47          48
          45          48          46
          46          48          49
          46          49          24
          24          49          23
           9          10          47
          47          10          50
          47          50          48
          48          50          51
          48          51          49
          49          51          52
          49          52          23
          23          52          22
          10          11          50
          50          11          53
          50          53          51
          51          53          54
          51          54          52
          52          54          55
          52          55          22
          22          55          21
          11          12          53
          53          12          56
          53          56          54
          54          56          57
          54          57          55
          55          57          58
          55          58          21
          21          58          20
          12          13          56
          56          13          59
          56          59          57
          57          59          60
          57          60          58
          58          60          61
          58          61          20
          20          61          19
          13          14          59
          59          14          62
          59          62          60
          60          62          63
          60          63          61
          61          63          64
          61          64          19
          19          64          18
          14           1          62
          62           1          15
          62          15          63
          63          15          16
          63          16          64
          64          16          17
          64          17          18
          18          17           2
 </DataArray>
 <DataArray type="Int32" Name="offsets" format="ascii">
           3
           6
           9
          12
          15
          18
          21
          24
          27
          30
          33
          36
          39
          42
          45
          48
          51
          54
          57
          60
          63
          66
          69
          72
          75
          78
          81
          84
          87
          90
          93
          96
          99
         102
         105
         108
         111
         114
         117
         120
         123
         126
         129
         132
         135
         138
         141
         144
         147
         150
         153
         156
         159
         162
         165
         168
         171
         174
         177
         180
         183
         186
         189
         192
         195
         198
         201
         204
         207
         210
         213
         216
         219
         222
         225
         228
         231
         234
         237
         240
         243
         246
         249
         252
         255
         258
         261
         264
         267
         270
         273
         276
         279
         282
         285
         288
 </DataArray>
 <DataArray type="UInt8" Name="types" format="ascii">
           5
           5
           5
           5
           5
           5
           5
           5
           5
           5
           5
           5
           5
           5
           5
           5
           5
           5
           5
           5
           5
           5
           5
           5
           5
           5
           5
           5
           5
           5
           5
           5
           5
           5
           5
           5
           5
           5
           5
           5
           5
           5
           5
           5
           5
           5
           5
           5
           5
           5
           5
           5
           5
           5
           5
           5
           5
           5
           5
           5
           5
           5
           5
           5
           5
           5
           5
           5
           5
           5
           5
           5
           5
           5
           5
           5
           5
           5
           5
           5
           5
           5
           5
           5
           5
           5
           5
           5
           5
           5
           5
           5
           5
           5
           5
           5
 </DataArray>
 </Cells>
 </Piece>
 </UnstructuredGrid>
 </VTKFile>
